LAMMPS data file via write_data, version 23 Jun 2022, timestep = 184

456 atoms
7 atom types
516 bonds
8 bond types
972 angles
12 angle types
1164 dihedrals
4 dihedral types
648 impropers
1 improper types

1.0127973697958874 27.573202630203667 xlo xhi
1.2506641656743698 27.54621183432482 ylo yhi
1.0737051658114312 27.44924283418813 zlo zhi
-0.4871608015578408 -0.7935540148278448 -0.31961632253975536 xy xz yz

Masses

1 12.0107
2 1.00794
3 114.818
4 15.9994
5 12.0107
6 1.00794
7 14.0067

PairIJ Coeffs # lj/cut/coul/long

1 1 0.105 3.43085 12.5
1 2 0.0679706 3.00099 12.5
1 3 0.250789 3.70347 12.5
1 4 0.0793725 3.2745 12.5
1 5 0.105 3.43085 12.5
1 6 0.0679706 3.00099 12.5
1 7 0.0851176 3.34577 12.5
2 2 0.044 2.57113 12.5
2 3 0.162345 3.27361 12.5
2 4 0.0513809 2.84464 12.5
2 5 0.0679706 3.00099 12.5
2 6 0.044 2.57113 12.5
2 7 0.0550999 2.91591 12.5
3 3 0.599 3.97608 12.5
3 4 0.189578 3.54711 12.5
3 5 0.250789 3.70347 12.5
3 6 0.162345 3.27361 12.5
3 7 0.2033 3.61838 12.5
4 4 0.06 3.11815 12.5
4 5 0.0793725 3.2745 12.5
4 6 0.0513809 2.84464 12.5
4 7 0.0643428 3.18942 12.5
5 5 0.105 3.43085 12.5
5 6 0.0679706 3.00099 12.5
5 7 0.0851176 3.34577 12.5
6 6 0.044 2.57113 12.5
6 7 0.0550999 2.91591 12.5
7 7 0.069 3.26069 12.5

Bond Coeffs # harmonic

1 462.655 1.37926
2 391.67 1.458
3 357.44 1.08142
4 187.992 2.03357
5 646.681 1.31194
6 331.069 1.1094
7 528.635 1.45107
8 527.945 1.04442

Dihedral Coeffs # harmonic

1 3.36856 -1 2
2 1.25 -1 2
3 6.73711 -1 2
4 0.05425 1 3

Atoms # full

1 444 1 0.0468 11.72871737834406 19.03417441586858 3.865286912183995 0 0 0
2 444 1 -0.1278 11.218431358344487 20.3095261830856 4.160211517772782 0 0 0
3 444 2 0.1121 11.485307986028852 21.16248176434331 3.544974000309734 0 0 0
4 444 1 0.0468 3.8131406295050896 16.792536016797687 9.503582441973004 0 0 0
5 444 1 -0.1278 4.135770071490243 17.205523443083102 8.198988753795946 0 0 0
6 444 2 0.1121 3.507802653128172 16.918554343248168 7.361947486347811 0 0 0
7 444 1 -0.1278 4.648221855577342 17.173725871345884 10.567382547264915 0 0 0
8 444 2 0.1121 4.4264395660582325 16.851301422057922 11.577864947099895 0 0 0
9 444 1 -0.1318 5.796775554328668 17.93789534642205 10.323159342344999 0 0 0
10 444 2 0.1078 6.442921319971655 18.19867968154687 11.152228548732912 0 0 0
11 444 1 0.022 6.128963110286352 18.32825017724732 9.012353074404722 0 0 0
12 444 1 -0.1318 5.279829448183662 17.964763723030746 7.956488444221648 0 0 0
13 444 2 0.1078 5.497036021089964 18.274845177239243 6.941570173888344 0 0 0
14 444 1 0.0468 9.242979812696278 24.65549502767659 11.588033249030307 0 0 0
15 444 1 -0.1278 7.985369528853216 24.33210940347693 11.050221489910614 0 0 0
16 444 2 0.1121 7.1213677121724 24.9520315279296 11.254898695635971 0 0 0
17 444 1 -0.1318 7.8218489473688475 23.19020792110493 10.27010584743608 0 0 0
18 444 2 0.1078 6.840688863915164 22.959029739296422 9.87196397263527 0 0 0
19 444 1 0.022 8.91131044016789 22.346960548198382 10.007152845019684 0 0 0
20 444 1 -0.1318 10.18219315493676 22.693148491453393 10.498470584276253 0 0 0
21 444 2 0.1078 11.035611848424876 22.05373732693691 10.304881290996907 0 0 0
22 444 1 -0.1278 10.347442370102756 23.839238756131255 11.287938386339185 0 0 0
23 444 2 0.1121 11.325549771421624 24.06683826414489 11.696257450476146 0 0 0
24 444 1 -0.1278 11.365159773197282 17.94729500754752 4.680047442824914 0 0 0
25 444 2 0.1121 11.757396818410674 16.958214357565026 4.47571882023614 0 0 0
26 444 1 -0.1318 10.539498686012095 18.14651479630123 5.796225067635373 0 0 0
27 444 2 0.1078 10.304310693351043 17.30567589086197 6.43703539898384 0 0 0
28 444 1 0.022 10.070320167755076 19.434531273334947 6.1135356687104725 0 0 0
29 444 1 -0.1318 10.397510822669894 20.506524026066085 5.268692936199985 0 0 0
30 444 2 0.1078 10.02551771853174 21.503210659323035 5.472010357957242 0 0 0
31 444 1 -0.0339 7.338573988042373 19.14174619845636 8.741362923131998 0 0 0
32 444 1 -0.0761 7.6180339388862635 20.264673356670613 9.532367561716653 0 0 0
33 444 2 0.1029 6.968229908548376 20.507057361387943 10.36481618989917 0 0 0
34 444 1 -0.0339 8.701345226286195 21.10433517837655 9.231238209830165 0 0 0
35 444 1 -0.0761 9.526401092937583 20.796836071347755 8.141263678557012 0 0 0
36 444 2 0.1029 10.358512034417064 21.44879460396393 7.90195906292423 0 0 0
37 444 1 -0.0339 9.25742535756678 19.680332584950406 7.329936518613636 0 0 0
38 444 1 -0.0761 8.16918023445527 18.850209616300813 7.6443054268621164 0 0 0
39 444 2 0.1029 7.948846912885878 17.995689028522666 7.015504045996964 0 0 0
40 444 1 0.0468 19.10928043449015 3.7821783224405645 11.93062605901611 0 0 0
41 444 1 -0.1278 18.034745913118172 4.611961461221663 11.566055993613723 0 0 0
42 444 2 0.1121 17.035538695811784 4.398827046062534 11.92665720843543 0 0 0
43 444 1 0.0468 24.81132451183209 11.552616032572338 9.663164817909374 0 0 0
44 444 1 -0.1278 24.009002607615905 11.192480360756683 10.76033042890944 0 0 0
45 444 2 0.1121 24.248657296306497 11.551709031387578 11.753893587691415 0 0 0
46 444 1 -0.1278 24.471271188912045 11.082904089065298 8.383635462835768 0 0 0
47 444 2 0.1121 25.07639176064027 11.347562032061127 7.522724452068974 0 0 0
48 444 1 -0.1318 23.331567570252272 10.304802716446009 8.194184260980142 0 0 0
49 444 2 0.1078 23.093341993836763 9.96192665547547 7.1946000238025185 0 0 0
50 444 1 0.022 22.501696662545662 9.980848615521989 9.278484704690515 0 0 0
51 444 1 -0.1318 22.86216820906801 10.40945642459068 10.568713338958341 0 0 0
52 444 2 0.1078 22.233532117238813 10.173971262331378 11.41878724079977 0 0 0
53 444 1 0.0468 17.002324451453187 9.523968470239218 4.110371719061548 0 0 0
54 444 1 -0.1278 17.346275456214745 10.580137228091619 4.970676903317451 0 0 0
55 444 2 0.1121 17.009341154504472 11.589416062461353 4.763081560427791 0 0 0
56 444 1 -0.1318 18.09863355788497 10.330895352870233 6.125683210786079 0 0 0
57 444 2 0.1078 18.337055789191727 11.153404177782168 6.789835108636989 0 0 0
58 444 1 0.022 18.511357148349852 9.02308897682255 6.43874458125174 0 0 0
59 444 1 -0.1318 18.188526124453478 7.976141767111796 5.562917498806216 0 0 0
60 444 2 0.1078 18.527086406878638 6.966892186935456 5.765631600874899 0 0 0
61 444 1 -0.1278 17.444195570312562 8.223458340060773 4.411003584653909 0 0 0
62 444 2 0.1121 17.204372193608123 7.394623108514052 3.7566527597567925 0 0 0
63 444 1 -0.1278 20.398749910097322 4.0893791777211534 11.46459047219534 0 0 0
64 444 2 0.1121 21.242645271719184 3.462471106859662 11.733470475475599 0 0 0
65 444 1 -0.1318 20.61981772761219 5.220376977748702 10.681186661217696 0 0 0
66 444 2 0.1078 21.625904451970225 5.429030121931563 10.338090548284288 0 0 0
67 444 1 0.022 19.55818898650884 6.076132768526058 10.349311318767889 0 0 0
68 444 1 -0.1318 18.258235082453936 5.751361164033387 10.780031071960735 0 0 0
69 444 2 0.1078 17.42520631364251 6.401449652547701 10.5434558227953 0 0 0
70 444 1 -0.0339 21.258201585017176 9.209336465333612 9.044400529427548 0 0 0
71 444 1 -0.0761 20.42571639357171 9.53127787861612 7.9603944914029245 0 0 0
72 444 2 0.1029 20.672192844450226 10.37628945406139 7.327941670349043 0 0 0
73 444 1 -0.0339 19.307028439681826 8.74364162235528 7.656520953325387 0 0 0
74 444 1 -0.0761 19.00516524981707 7.63594441992177 8.467040218428851 0 0 0
75 444 2 0.1029 18.15355240018894 7.011143754302261 8.226678137508884 0 0 0
76 444 1 -0.0339 19.82195105525794 7.303606892000852 9.558946733699235 0 0 0
77 444 1 -0.0761 20.94056896676348 8.10532249398107 9.848683330171516 0 0 0
78 444 2 0.1029 21.58602763650767 7.848599378727133 10.680446509379381 0 0 0
79 444 1 0.0468 11.10876746870467 9.317066486801302 24.798800877040534 0 0 0
80 444 1 -0.1278 10.735718891955335 10.413089745551762 24.00161634617232 0 0 0
81 444 2 0.1121 11.072832827040294 11.412751090688197 24.251758263125264 0 0 0
82 444 1 0.0468 3.339937518027022 11.544180531705678 19.134925858045325 0 0 0
83 444 1 -0.1278 3.6311264040909235 11.02317451000842 20.407327505255502 0 0 0
84 444 2 0.1121 2.987234321634615 11.241107622055129 21.25107839257404 0 0 0
85 444 1 -0.1278 4.184592279623586 11.22727021369736 18.056814091813145 0 0 0
86 444 2 0.1121 3.982563864505492 11.62531415708726 17.068846750088422 0 0 0
87 444 1 -0.1318 5.326762959782123 10.44020225558901 18.26231467544359 0 0 0
88 444 2 0.1078 5.988911048602521 10.241649415517156 17.428086114991643 0 0 0
89 444 1 0.022 5.640018012407458 9.961494124370887 19.547579201036562 0 0 0
90 444 1 -0.1318 4.766422379727645 10.240278955544987 20.610408756186974 0 0 0
91 444 2 0.1078 4.966486792412407 9.853366487133634 21.6024398353374 0 0 0
92 444 1 0.0468 9.297259666789879 3.8734003189990918 16.8542509513711 0 0 0
93 444 1 -0.1278 7.97392651099749 4.146591041377631 17.244033519765864 0 0 0
94 444 2 0.1121 7.163989053521441 3.497418681078248 16.935318362084537 0 0 0
95 444 1 -0.1318 7.678206926025072 5.269461042698171 18.01629686935254 0 0 0
96 444 2 0.1078 6.651509617770194 5.4481217434830524 18.312373225488493 0 0 0
97 444 1 0.022 8.697601203057035 6.147298595011602 18.41518309344052 0 0 0
98 444 1 -0.1318 10.02587898978751 5.865304849788905 18.044875987373093 0 0 0
99 444 2 0.1078 10.82862875391135 6.533723321960553 18.332496929454717 0 0 0
100 444 1 -0.1278 10.324009811937835 4.73745868540525 17.26948257447285 0 0 0
101 444 2 0.1121 11.349326938220372 4.5549375926119 16.967828192453883 0 0 0
102 444 1 -0.1278 10.667075857744647 8.030794008355544 24.44446861467513 0 0 0
103 444 2 0.1121 10.936163830035007 7.170567662198122 25.04493025130791 0 0 0
104 444 1 -0.1318 9.900574491876919 7.836188363804706 23.297418258505683 0 0 0
105 444 2 0.1078 9.574750969302167 6.833735011196962 23.0464722766895 0 0 0
106 444 1 0.022 9.559383684413598 8.921863187975095 22.47660458959526 0 0 0
107 444 1 -0.1318 9.963981484274457 10.216140028176884 22.848720467432443 0 0 0
108 444 2 0.1078 9.717094408435724 11.067249848080365 22.22524191735605 0 0 0
109 444 1 -0.0339 6.8804855027236 9.187099692372058 19.798805268829135 0 0 0
110 444 1 -0.0761 7.245012946939703 8.124617281891535 18.955898458006054 0 0 0
111 444 2 0.1029 6.634989554886437 7.895933806526118 18.09020017509906 0 0 0
112 444 1 -0.0339 8.370947583130645 7.332527410012893 19.245687472570356 0 0 0
113 444 1 -0.0761 9.14225254706039 7.628336653095081 20.378799194293908 0 0 0
114 444 2 0.1029 10.001502735986023 7.012365247888903 20.616444656133478 0 0 0
115 444 1 -0.0339 8.79219222224931 8.6872127411904 21.23120197640076 0 0 0
116 444 1 -0.0761 7.669949328233559 9.470147417597609 20.927215645839443 0 0 0
117 444 2 0.1029 7.392727082182866 10.282798446720193 21.58809433878376 0 0 0
118 444 1 0.0468 18.60741071782867 24.554701407589008 17.222231254455863 0 0 0
119 444 1 -0.1278 17.545489565247024 23.693956540132582 17.550082925944935 0 0 0
120 444 2 0.1121 16.548596472884906 23.890074221981184 17.17374746064266 0 0 0
121 444 1 0.0468 24.3756043724325 16.831888318692684 19.261983297036195 0 0 0
122 444 1 -0.1278 23.53122272739346 17.192082620872153 18.198020520973643 0 0 0
123 444 2 0.1121 23.750205093386338 16.861675785078496 17.18896594002106 0 0 0
124 444 1 -0.1278 24.057034429068615 17.260455543398198 20.562859597982335 0 0 0
125 444 2 0.1121 24.691643495767394 16.998322901636598 21.400067810328842 0 0 0
126 444 1 -0.1318 22.901780886767312 18.00336711335045 20.802599323709405 0 0 0
127 444 2 0.1078 22.68145224844325 18.32318583250674 21.814134834054762 0 0 0
128 444 1 0.022 22.03791370622324 18.336157769482806 19.748280969379767 0 0 0
129 444 1 -0.1318 22.372145259452218 17.941642886228873 18.439841790813517 0 0 0
130 444 2 0.1078 21.716917207780387 18.183958594263892 17.611471317858786 0 0 0
131 444 1 0.0468 16.439753495281867 18.806191142033686 24.914411989395326 0 0 0
132 444 1 -0.1278 16.815371115449775 17.741809581918027 24.075616743452777 0 0 0
133 444 2 0.1121 16.440663631465416 16.742557169252958 24.26270633786087 0 0 0
134 444 1 -0.1318 17.629993550802315 17.976897516704213 22.958577121767572 0 0 0
135 444 2 0.1078 17.87482250224369 17.153747731779163 22.298816064505324 0 0 0
136 444 1 0.022 18.07367316536707 19.278807991052496 22.663807198137782 0 0 0
137 444 1 -0.1318 17.734986085093325 20.328575323545742 23.53101915459205 0 0 0
138 444 2 0.1078 18.08687393208441 21.33564924905512 23.342014501566133 0 0 0
139 444 1 -0.1278 16.927384849422126 20.095535953759416 24.64224501385063 0 0 0
140 444 2 0.1121 16.651403406641222 20.931673297819945 25.27639486074527 0 0 0
141 444 1 -0.1278 19.8946108583708 24.269201995178182 17.708981529092863 0 0 0
142 444 2 0.1121 20.72937592853837 24.918630350352032 17.466805507878664 0 0 0
143 444 1 -0.1318 20.1270057337533 23.128156604122967 18.473843533824933 0 0 0
144 444 2 0.1078 21.13086177444589 22.932450547181897 18.830579550698015 0 0 0
145 444 1 0.022 19.078283575915584 22.245285817844252 18.770921026268272 0 0 0
146 444 1 -0.1318 17.779482002797206 22.54822604799314 18.323178402110106 0 0 0
147 444 2 0.1078 16.956872443614824 21.87722626802394 18.537931101486034 0 0 0
148 444 1 -0.0339 20.8002594805959 19.105502304992537 20.023454215658827 0 0 0
149 444 1 -0.0761 19.98605862104912 18.77671718823501 21.122196315187303 0 0 0
150 444 2 0.1029 20.239587270272096 17.927947554376203 21.745849693463384 0 0 0
151 444 1 -0.0339 18.86936969826841 19.562368326115138 21.44586926409011 0 0 0
152 444 1 -0.0761 18.552761641607667 20.67109803780865 20.64283481743876 0 0 0
153 444 2 0.1029 17.699565055791343 21.290690271202465 20.893835635439775 0 0 0
154 444 1 -0.0339 19.35445515668717 21.012831182790855 19.54528184702273 0 0 0
155 444 1 -0.0761 20.470196844902144 20.217813300228606 19.234860077244953 0 0 0
156 444 2 0.1029 21.102042062043463 20.486633122962438 18.396360482478656 0 0 0
157 444 1 0.0468 24.617580753306303 16.67035468956937 9.83498326285689 0 0 0
158 444 1 -0.1278 24.245867511249685 17.183071414366175 8.58015648693678 0 0 0
159 444 2 0.1121 24.860102649239067 16.99379019371659 7.705939920818787 0 0 0
160 444 1 0.0468 16.835419828645986 18.910494584232243 4.2427747919918275 0 0 0
161 444 1 -0.1278 17.159620292997985 17.78551072507819 5.022173305479017 0 0 0
162 444 2 0.1121 16.83394171175862 16.79878789512391 4.715738796891809 0 0 0
163 444 1 -0.1278 17.261558564850198 20.180299290567948 4.668911039416627 0 0 0
164 444 2 0.1121 17.02598246920769 21.063464684524163 4.084276527149623 0 0 0
165 444 1 -0.1318 17.972518910954303 20.33060820629014 5.857481711745967 0 0 0
166 444 2 0.1078 18.293131210604116 21.322806035792546 6.151500596868397 0 0 0
167 444 1 0.022 18.275667004965538 19.215974169406916 6.653974222967795 0 0 0
168 444 1 -0.1318 17.879175052606122 17.937548550135585 6.218196611278209 0 0 0
169 444 2 0.1078 18.10149430673166 17.063738877565232 6.818102688553996 0 0 0
170 444 1 0.0468 18.69082877114759 24.333972126878223 12.185476577181237 0 0 0
171 444 1 -0.1278 17.63168617907353 23.4827300833059 11.825987907174415 0 0 0
172 444 2 0.1121 16.618207321650857 23.717321856947574 12.128832163852717 0 0 0
173 444 1 -0.1318 17.88296707277349 22.310877051811214 11.095575060461913 0 0 0
174 444 2 0.1078 17.055334467537214 21.660637714303554 10.840660472958314 0 0 0
175 444 1 0.022 19.19666379905485 21.969520394388322 10.718358908907007 0 0 0
176 444 1 -0.1318 20.247855371190685 22.830242377418532 11.069721403705465 0 0 0
177 444 2 0.1078 21.2645288653853 22.612404353011453 10.766544061017097 0 0 0
178 444 1 -0.1278 19.99861712109768 23.995510110549375 11.794273655432622 0 0 0
179 444 2 0.1121 20.833281906280554 24.634879949992172 12.061873156516077 0 0 0
180 444 1 -0.1278 23.799372745886092 16.936747763640405 10.948153446354958 0 0 0
181 444 2 0.1121 24.060023159687127 16.542614609969526 11.92263724289077 0 0 0
182 444 1 -0.1318 22.61363411650816 17.674840451495257 10.794930473297471 0 0 0
183 444 2 0.1078 21.978387208860447 17.842602000306172 11.655923666936474 0 0 0
184 444 1 0.022 22.227447412099433 18.150238387474378 9.52709568328795 0 0 0
185 444 1 -0.1318 23.069240621273355 17.914349913457464 8.429098914268627 0 0 0
186 444 2 0.1078 22.815436763350107 18.295977758932978 7.4474208246699884 0 0 0
187 444 1 -0.0339 19.022994779151382 19.405934625532918 7.92275131451582 0 0 0
188 444 1 -0.0761 18.687089499519413 20.46127854489588 8.787522593782231 0 0 0
189 444 2 0.1029 17.836986131606004 21.091489027499026 8.554442685343703 0 0 0
190 444 1 -0.0339 19.477156098369285 20.753419312041252 9.909942958988758 0 0 0
191 444 1 -0.0761 20.60346109558846 19.95287153032225 10.181845352952468 0 0 0
192 444 2 0.1029 21.235117258897326 20.186023568567975 11.030479409061343 0 0 0
193 444 1 -0.0339 20.955118454161944 18.893511069332988 9.328253819523171 0 0 0
194 444 1 -0.0761 20.145183860312464 18.615775715314864 8.211484075261994 0 0 0
195 444 2 0.1029 20.41971433332523 17.815348935431334 7.534638131012974 0 0 0
196 444 1 0.0468 24.14612849637754 11.847009862332808 19.140591961969626 0 0 0
197 444 1 -0.1278 23.764834672171308 11.434874040767422 20.43053472819233 0 0 0
198 444 2 0.1121 24.385982228478305 11.665396600524879 21.287703978986443 0 0 0
199 444 1 0.0468 16.243926783627742 9.548554820635058 24.766868652149117 0 0 0
200 444 1 -0.1278 16.779560669749056 8.296727599772776 24.416557211513254 0 0 0
201 444 2 0.1121 16.586298447074295 7.4237419737578385 25.02885480712844 0 0 -1
202 444 1 -0.1278 16.527813684114793 10.661692813150353 23.954955124422597 0 0 0
203 444 2 0.1121 16.119717776616746 11.635189330207798 24.200266557787256 0 0 0
204 444 1 -0.1318 17.304724395213864 10.511047624322998 22.794173452646213 0 0 0
205 444 2 0.1078 17.487757414208474 11.372220524624975 22.16275126041709 0 0 0
206 444 1 0.022 17.80123889003101 9.24600772460255 22.427050698898224 0 0 0
207 444 1 -0.1318 17.547933579595327 8.14827052606453 23.263613835549837 0 0 0
208 444 2 0.1078 17.948898079047215 7.170465458154969 23.023786092606354 0 0 0
209 444 1 0.0468 18.766545718807546 3.9892785042252368 17.02925784739686 0 0 0
210 444 1 -0.1278 17.62949492552761 4.772494002025155 17.298365755540644 0 0 0
211 444 2 0.1121 16.662591857923484 4.479587989615425 16.907115801993765 0 0 0
212 444 1 -0.1318 17.74808600465211 5.959666226645649 18.039208562644088 0 0 0
213 444 2 0.1078 16.868534301277954 6.566901685543949 18.213003259838636 0 0 0
214 444 1 0.022 19.00511233370596 6.381601981106093 18.511199419459142 0 0 0
215 444 1 -0.1318 20.1287908164107 5.577612502956409 18.26867918877288 0 0 0
216 444 2 0.1078 21.103576593334655 5.862202372402707 18.646138300344905 0 0 0
217 444 1 -0.1278 20.011481855270674 4.398265397251777 17.537446045375635 0 0 0
218 444 2 0.1121 20.903215760220696 3.810734759109067 17.34442261761034 0 0 0
219 444 1 -0.1278 23.316691133947092 11.528848506033263 18.051648709232257 0 0 0
220 444 2 0.1121 23.583409343660325 11.847139265416693 17.050256086019893 0 0 0
221 444 1 -0.1318 22.124639710758316 10.817487183209614 18.255381733224006 0 0 0
222 444 2 0.1078 21.493170714588118 10.590650139658113 17.40466743527327 0 0 0
223 444 1 0.022 21.739810567754677 10.421084448256739 19.5506314769734 0 0 0
224 444 1 -0.1318 22.577173598921725 10.732067953291239 20.6325674232378 0 0 0
225 444 2 0.1078 22.322488141534027 10.40994397987518 21.635018148303082 0 0 0
226 444 1 -0.0339 18.587985255150436 9.049857809959661 21.18177761527616 0 0 0
227 444 1 -0.0761 18.334953593247587 7.937204615953978 20.357943313006892 0 0 0
228 444 2 0.1029 17.52205267469844 7.262572270029484 20.598905603801263 0 0 0
229 444 1 -0.0339 19.166127874178297 7.648711412592724 19.26619506899638 0 0 0
230 444 1 -0.0761 20.236774983570726 8.509398149984325 18.972822074690097 0 0 0
231 444 2 0.1029 20.897076694747835 8.275748664413067 18.145549025294727 0 0 0
232 444 1 -0.0339 20.50567830165262 9.625713213319436 19.77862727691165 0 0 0
233 444 1 -0.0761 19.665465908329708 9.89824745386127 20.875101973667835 0 0 0
234 444 2 0.1029 19.880736853737424 10.74216819628657 21.519371661597255 0 0 0
235 444 1 0.0468 9.217339866721382 24.442483349468322 16.71206590327387 0 0 0
236 444 1 -0.1278 7.946225722272166 24.072960071369796 17.18670751709291 0 0 0
237 444 2 0.1121 7.0807279648469175 24.691257534093754 16.983449971698995 0 0 0
238 444 1 0.0468 3.569170935073384 16.665741927186495 18.97457091755425 0 0 0
239 444 1 -0.1278 4.379373802375763 16.94338089143374 17.859178352581434 0 0 0
240 444 2 0.1121 4.107571225416629 16.56728692024952 16.879378938971698 0 0 0
241 444 1 -0.1278 3.9522917403207733 17.157094609532294 20.234995442256945 0 0 0
242 444 2 0.1121 3.3419126859742887 16.968066676257706 21.109343375433784 0 0 0
243 444 1 -0.1318 5.133838672436861 17.879115465555234 20.387389988558024 0 0 0
244 444 2 0.1078 5.399662896182803 18.249675382524938 21.370503933506065 0 0 0
245 444 1 0.022 5.9640958876362875 18.129920305692004 19.284634242087854 0 0 0
246 444 1 -0.1318 5.567698352404291 17.674817792924518 18.013478987943685 0 0 0
247 444 2 0.1078 6.195071412848088 17.856559723982055 17.14903925100218 0 0 0
248 444 1 0.0468 11.374969715386582 18.733704747425524 24.516285595820268 0 0 0
249 444 1 -0.1278 10.961822522134893 20.02270947824268 24.135995042518 0 0 0
250 444 2 0.1121 11.19726287615361 20.879590929910837 24.758705591507113 0 0 0
251 444 1 -0.1318 10.260308382731974 20.22504604523301 22.948644603705457 0 0 0
252 444 2 0.1078 9.943765111479165 21.229385108230364 22.695525844635316 0 0 0
253 444 1 0.022 9.954189671361238 19.144239725795085 22.107875613845437 0 0 0
254 444 1 -0.1318 10.349519885268439 17.848325579018795 22.491882554562448 0 0 0
255 444 2 0.1078 10.130620193030495 16.999518513031425 21.85608644783534 0 0 0
256 444 1 -0.1278 11.058116273785984 17.64432841971565 23.68608592296804 0 0 0
257 444 2 0.1121 11.379779542318838 16.64487350986952 23.954087337295732 0 0 0
258 444 1 -0.1278 10.319766125825986 23.62108792160279 17.00714534363874 0 0 0
259 444 2 0.1121 11.307724018782658 23.87992519303558 16.644226512374942 0 0 0
260 444 1 -0.1318 10.142604537819977 22.43670817686396 17.74033511625944 0 0 0
261 444 2 0.1078 10.998886423929667 21.802451617782427 17.93720862822619 0 0 0
262 444 1 0.022 8.861531172571926 22.054775971514054 18.18191123474248 0 0 0
263 444 1 -0.1318 7.771430632626608 22.896091609266986 17.912012724562093 0 0 0
264 444 2 0.1078 6.781173048147207 22.64485643249165 18.272805717499978 0 0 0
265 444 1 -0.0339 7.228657777354375 18.881543659494174 19.479864213912354 0 0 0
266 444 1 -0.0761 8.067058626439428 18.57778529334115 20.56603690155738 0 0 0
267 444 2 0.1029 7.820886706668778 17.746639041516516 21.21611672615379 0 0 0
268 444 1 -0.0339 9.17986128376798 19.378765697890383 20.862196758519353 0 0 0
269 444 1 -0.0761 9.471625964576385 20.47973606237195 20.03608605317442 0 0 0
270 444 2 0.1029 10.313485339552408 21.119339299017145 20.274155265432032 0 0 0
271 444 1 -0.0339 8.645669079913691 20.798865809866648 18.946012838776394 0 0 0
272 444 1 -0.0761 7.536512813260536 19.979979592864368 18.663321472512713 0 0 0
273 444 2 0.1029 6.880541838929797 20.229513309777214 17.8379656760143 0 0 0
274 444 1 0.0468 9.745093396743398 4.0915934003680325 11.844915769576497 0 0 0
275 444 1 -0.1278 8.4818685756667 4.444176660824576 11.337168069955151 0 0 0
276 444 2 0.1121 7.623392066523225 3.8033304254936273 11.49969528252964 0 0 0
277 444 1 0.0468 4.02190283418111 11.811487678729971 9.753208847111669 0 0 0
278 444 1 -0.1278 4.851574479058735 11.532051715713315 10.853867558752874 0 0 0
279 444 2 0.1121 4.577536809645862 11.878028750786164 11.843328123960918 0 0 0
280 444 1 -0.1278 4.412369125023774 11.366841143427987 8.47743584137482 0 0 0
281 444 2 0.1121 3.791784829462596 11.572353925216053 7.6113465665610995 0 0 0
282 444 1 -0.1318 5.6131915870116025 10.682361353960314 8.296809914284545 0 0 0
283 444 2 0.1078 5.878517384481555 10.348517647518186 7.301092272360474 0 0 0
284 444 1 0.022 6.4570486622315 10.421612192845394 9.38666956555591 0 0 0
285 444 1 -0.1318 6.058309617981907 10.836821312019985 10.671887745112109 0 0 0
286 444 2 0.1078 6.695385213183859 10.649458193020973 11.527360348109422 0 0 0
287 444 1 0.0468 11.93934832982151 9.786459659543947 4.150950749111324 0 0 0
288 444 1 -0.1278 11.642630481147881 10.885010196134399 4.977791478625589 0 0 0
289 444 2 0.1121 12.019656544425358 11.871321241079752 4.733150743079316 0 0 0
290 444 1 -0.1318 10.890664445557347 10.704941923808285 6.150420090604236 0 0 0
291 444 2 0.1078 10.692691402620039 11.556523942524802 6.790647041637028 0 0 0
292 444 1 0.022 10.436197972597204 9.42430323848285 6.516161892895138 0 0 0
293 444 1 -0.1318 10.704520528739039 8.339411518101514 5.668132541701869 0 0 0
294 444 2 0.1078 10.334493605778723 7.349976573652666 5.90955968861819 0 0 0
295 444 1 -0.1278 11.444692733336183 8.517500049633297 4.501257651282909 0 0 0
296 444 2 0.1121 11.648357543090592 7.654969928317202 3.8788623095807293 0 0 0
297 444 1 -0.1278 10.836883227692157 4.946200668884913 11.609512086463235 0 0 0
298 444 2 0.1121 11.817441556625113 4.700622693855806 12.000617814528097 0 0 0
299 444 1 -0.1318 10.656207317153042 6.1438102603473155 10.89894825814017 0 0 0
300 444 2 0.1078 11.50227152770997 6.802845045973118 10.745012232034442 0 0 0
301 444 1 0.022 9.381085184830178 6.507051411755722 10.426719323442594 0 0 0
302 444 1 -0.1318 8.302539958636334 5.636471584902598 10.639534681512577 0 0 0
303 444 2 0.1078 7.3176126699750235 5.878160553819924 10.257378724725902 0 0 0
304 444 1 -0.0339 7.7277991263232515 9.682943056814583 9.16978703102101 0 0 0
305 444 1 -0.0761 8.556451456754164 9.996014682927772 8.075690814413598 0 0 0
306 444 2 0.1029 8.30140709509292 10.828849010456171 7.430654446898423 0 0 0
307 444 1 -0.0339 9.670793206891785 9.198960441610065 7.768328195483756 0 0 0
308 444 1 -0.0761 9.976860855745489 8.100343114858578 8.591418531407445 0 0 0
309 444 2 0.1029 10.81991087071038 7.4650043409452636 8.346972865802643 0 0 0
310 444 1 -0.0339 9.160202034827362 7.77169141972583 9.682971488087759 0 0 0
311 444 1 -0.0761 8.047443292868417 8.579676722510696 9.976117479513709 0 0 0
312 444 2 0.1029 7.395414401207834 8.3147551043858 10.800173127175345 0 0 0
313 444 3 0.7344000000000001 14.484442841078106 18.76380301053746 1.199328806225917 0 0 0
314 444 4 -0.4924 14.93133808063819 17.46824875315805 26.34334665637783 0 0 0
315 444 4 -0.4924 14.94722266306786 19.632086650921277 26.646573176139878 0 0 0
316 444 4 -0.4924 15.58593037166322 19.862944609205748 2.3887919310102106 0 0 0
317 444 4 -0.4924 15.521171714230439 17.68254955702257 2.5358212599444125 0 0 0
318 444 4 -0.4924 13.22980700820089 19.919376573179044 2.170415171132058 0 0 0
319 444 4 -0.4924 13.240112122938104 17.74600067142435 2.393069368043218 0 0 0
320 444 4 -0.4924 12.655319256628372 17.42558043857019 26.18949912950741 0 0 0
321 444 4 -0.4924 12.600979048158619 19.598968725191604 26.426938820668774 0 0 0
322 444 1 0.5689 15.458539031121084 18.621187338111675 26.005736994232947 0 0 0
323 444 1 0.5689 15.995571253145927 18.805142609556782 3.027028325950817 0 0 0
324 444 1 0.5689 12.716904853042053 18.88697917514764 2.774207447506105 0 0 0
325 444 1 0.5689 12.194942251908184 18.571261589814316 25.73958765289068 0 0 0
326 444 3 0.7344000000000001 18.268060752159695 27.318070226513484 14.580241567698481 0 -1 0
327 444 4 -0.4924 19.435651070165118 26.37051790180914 15.83768726790333 0 0 0
328 444 4 -0.4924 17.27862225173042 26.025620535940305 15.745407107509946 0 0 0
329 444 4 -0.4924 17.309244395423047 25.946241100016874 13.470928435639564 0 0 0
330 444 4 -0.4924 19.47679513939977 26.23077934679837 13.48559820791964 0 0 0
331 444 4 -0.4924 17.773844042294787 2.250737032947329 13.33931948577871 0 0 0
332 444 4 -0.4924 19.948924423436953 2.0483577727783877 13.410694983456011 0 0 0
333 444 4 -0.4924 19.78865981103137 2.179317941583854 15.77448824574389 0 0 0
334 444 4 -0.4924 17.61221223554002 2.31336688608311 15.61151449175403 0 0 0
335 444 1 0.5689 18.424267289830624 25.68721322255666 16.28943103970906 0 0 0
336 444 1 0.5689 18.476955329795896 25.533615909642965 13.029695306296624 0 0 0
337 444 1 0.5689 18.931935518934893 2.658610444955661 12.875907851946899 0 0 0
338 444 1 0.5689 18.707526729807288 2.795912774025617 16.153809214230513 0 0 0
339 444 3 0.7344000000000001 14.470140447572055 9.967121102731731 1.2592433053344938 0 0 0
340 444 4 -0.4924 13.271803711902209 8.852747583172714 2.3420925699348 0 0 0
341 444 4 -0.4924 13.363880447859037 11.029003471743419 2.5424787960322948 0 0 0
342 444 4 -0.4924 12.492423762071201 10.626111062218662 26.3694114338413 0 0 0
343 444 4 -0.4924 12.535219502764708 8.449087049935276 26.572738546334953 0 0 0
344 444 4 -0.4924 14.793175671062297 10.745664253487202 26.388049573122405 0 0 0
345 444 4 -0.4924 14.873751967352307 8.56546354318721 26.52120705882591 0 0 0
346 444 4 -0.4924 15.598742759556117 8.733805413092831 2.288024164009292 0 0 0
347 444 4 -0.4924 15.65026639812175 10.900333093203525 2.5660403305278354 0 0 0
348 444 1 0.5689 12.837250431975905 9.907606907812035 2.9782487301671265 0 0 0
349 444 1 0.5689 12.028831920543588 9.47649768269034 25.944289261326034 0 0 0
350 444 1 0.5689 15.321485958193083 9.63606349157223 25.923842589372633 0 0 0
351 444 1 0.5689 16.10840663125744 9.73448677317262 2.953049961201969 0 0 0
352 444 3 0.7344000000000001 9.900025976877638 1.1075928974637854 14.262414956350348 0 0 0
353 444 4 -0.4924 10.758659540285334 2.400009772858454 15.510685454834995 0 0 0
354 444 4 -0.4924 8.601114469435835 2.055770776819769 15.390970661242191 0 0 0
355 444 4 -0.4924 8.28479249886914 26.249162614722575 15.377470536257498 0 0 0
356 444 4 -0.4924 10.468226682644456 26.116588927886134 15.37252930740126 0 0 0
357 444 4 -0.4924 8.293377338649973 26.386493018466073 13.009033289479087 0 0 0
358 444 4 -0.4924 10.467783008936028 26.1796732164783 13.097460391005797 0 0 0
359 444 4 -0.4924 10.974162440896288 2.462074505568497 13.2574021385038 0 0 0
360 444 4 -0.4924 8.812868488684444 2.1963895161002096 13.04995347140847 0 0 0
361 444 1 0.5689 9.56700163644045 2.7432982503433854 15.939389074746686 0 0 0
362 444 1 0.5689 9.33962249305572 25.633753901428822 15.839760610494412 0 0 0