
#------------------------------------------------------------------------------#
# simulation settings
#------------------------------------------------------------------------------#

##### simulation variables

variable        seed 	equal  20902
variable        T       equal  300	    #K
variable        p       equal  0.0 	#bar
variable        damp_T  equal  100 		  	#K
variable        damp_P  equal  1000.0	  	#bar
variable        dT      equal  1.0 		 	#fs
variable        kb      equal  0.0019872041

## system setup ##

units           real
atom_style      full
boundary        p p p

pair_style      lj/cut/coul/long 12.500
bond_style      harmonic
angle_style     hybrid cosine/periodic fourier
dihedral_style  harmonic
improper_style  fourier
kspace_style 	ewald 0.000001

dielectric 	 	1.0
pair_modify 	tail yes mix arithmetic
special_bonds 	lj/coul 0.0 0.0 1.0

read_data 	 	../data.emin_sod-4c_Zn-2c_mim_fe
Reading data file ...
  triclinic box = (4.5054746 4.3760097 4.4164229) to (20.786525 20.913779 20.965143) with tilt (-0.95270579 -0.51398262 -1.0127119)
  1 by 2 by 2 MPI processor grid
  reading atoms ...
  276 atoms
  reading velocities ...
  276 velocities
  scanning bonds ...
  3 = max bonds/atom
  scanning angles ...
  6 = max angles/atom
  scanning dihedrals ...
  10 = max dihedrals/atom
  scanning impropers ...
  4 = max impropers/atom
  reading bonds ...
  312 bonds
  reading angles ...
  576 angles
  reading dihedrals ...
  624 dihedrals
  reading impropers ...
  360 impropers
Finding 1-2 1-3 1-4 neighbors ...
  special bond factors lj:    0        0        1       
  special bond factors coul:  0        0        1       
     4 = max # of 1-2 neighbors
     8 = max # of 1-3 neighbors
    12 = max # of special neighbors
  special bonds CPU = 0.000 seconds
  read_data CPU = 0.003 seconds
include 	 	../non_bonded_sod-4c_Zn-2c_mim.param
### Parameters for Equilibration ###

### Parameters for MOF ###

mass 1 65.380000000
mass 2 14.006700000
mass 3 12.010700000
mass 4 1.007940000
mass 5 12.010700000


bond_coeff 1 165.837318 1.881712
bond_coeff 2 663.718927 1.345073
bond_coeff 3 369.943935 1.486000
bond_coeff 4 462.655054 1.379256
bond_coeff 5 357.440381 1.081418
bond_coeff 6 331.069389 1.109401

angle_coeff 1 fourier 197.524216 0.343737 0.374972 0.281246
angle_coeff 2 cosine/periodic 45.889625 -1 3
angle_coeff 3 cosine/periodic 120.000516 -1 3
angle_coeff 4 cosine/periodic 212.442573 -1 3
angle_coeff 5 cosine/periodic 136.548728 -1 3
angle_coeff 6 cosine/periodic 153.699352 -1 3
angle_coeff 7 cosine/periodic 79.786967 -1 3
angle_coeff 8 cosine/periodic 57.289016 -1 3
angle_coeff 9 fourier 121.777217 0.343737 0.374972 0.281246
angle_coeff 10 fourier 75.498766 0.343737 0.374972 0.281246

dihedral_coeff 1 3.368555 -1 2
dihedral_coeff 2 0.166667 1 3

improper_coeff 1 2.000000 1.000000 -1.000000 0.000000 0

pair_coeff 1 1 0.124 2.46155
pair_coeff 1 2 0.0924986 2.86112
pair_coeff 1 3 0.114105 2.9462
pair_coeff 1 4 0.0738647 2.51634
pair_coeff 1 5 0.114105 2.9462
pair_coeff 2 2 0.069 3.26069
pair_coeff 2 3 0.0851176 3.34577
pair_coeff 2 4 0.0550999 2.91591
pair_coeff 2 5 0.0851176 3.34577
pair_coeff 3 3 0.105 3.43085
pair_coeff 3 4 0.0679706 3.00099
pair_coeff 3 5 0.105 3.43085
pair_coeff 4 4 0.044 2.57113
pair_coeff 4 5 0.0679706 3.00099
pair_coeff 5 5 0.105 3.43085

group			fram type < 6
276 atoms in group fram

fix				SPRING fram spring/self 10 	# harmonic restraint to framework


#------------------------------------------------------------------------------#
# equilibration
#------------------------------------------------------------------------------#

reset_timestep	0

variable 		delta equal ${lambda}
variable 		delta equal 1e-08
fix 			ADAPT all adapt 0 atom charge v_delta scale yes

thermo_style	custom step etotal ke pe temp press density vol evdwl etail ecoul elong epair
thermo 			5000
velocity 		all create ${T} ${seed}
velocity 		all create 300 ${seed}
velocity 		all create 300 20902

fix				f1 all nve
fix 			f2 all langevin ${T} ${T} ${damp_T} ${seed} zero yes
fix 			f2 all langevin 300 ${T} ${damp_T} ${seed} zero yes
fix 			f2 all langevin 300 300 ${damp_T} ${seed} zero yes
fix 			f2 all langevin 300 300 100 ${seed} zero yes
fix 			f2 all langevin 300 300 100 20902 zero yes
compute 		c1 all temp/com
fix_modify		f2 temp c1

run				200000
Ewald initialization ...
  using 12-bit tables for long-range coulomb (../kspace.cpp:342)
  G vector (1/distance) = 0.24281392
  estimated absolute RMS force accuracy = 0.00037231444
  estimated relative force accuracy = 1.1212139e-06
  KSpace vectors: actual max1d max3d = 131 4 364
                  kxmax kymax kzmax  = 4 4 4
Generated 0 of 10 mixed pair_coeff terms from arithmetic mixing rule
Neighbor list info ...
  update every 1 steps, delay 10 steps, check yes
  max neighbors/atom: 2000, page size: 100000
  master list distance cutoff = 14.5
  ghost atom cutoff = 14.5
  binsize = 7.25, bins = 3 3 3
  1 neighbor lists, perpetual/occasional/extra = 1 0 0
  (1) pair lj/cut/coul/long, perpetual
      attributes: half, newton on
      pair build: half/bin/newton/tri
      stencil: half/bin/3d/tri
      bin: standard
WARNING: Inconsistent image flags (../domain.cpp:819)
Per MPI rank memory allocation (min/avg/max) = 16.18 | 16.18 | 16.18 Mbytes
   Step         TotEng         KinEng         PotEng          Temp          Press         Density         Volume         E_vdwl         E_tail         E_coul         E_long         E_pair    
         0   1177.4706      245.91683      931.55372      300            10489.585      1.0177122      4455.7805     -161.77947     -4.6924513     -6.8098253e-14 -8.9349675e-14 -161.77947    
      5000   1410.1048      263.47778      1146.627       321.42304      7651.6114      1.0177122      4455.7805     -156.28344     -4.6924513     -6.7441181e-14 -8.9342934e-14 -156.28344    
     10000   1404.3692      253.61289      1150.7563      309.38861      5678.0863      1.0177122      4455.7805     -154.22045     -4.6924513     -6.7755722e-14 -8.934968e-14  -154.22045    
     15000   1380.5196      241.80251      1138.7171      294.98085      8689.1897      1.0177122      4455.7805     -158.81714     -4.6924513     -6.7415227e-14 -8.9343986e-14 -158.81714    
     20000   1372.4865      227.09131      1145.3952      277.03428      7841.673       1.0177122      4455.7805     -149.93841     -4.6924513     -6.7571329e-14 -8.9351057e-14 -149.93841    
     25000   1432.58        270.92952      1161.6505      330.5136       7746.029       1.0177122      4455.7805     -148.76831     -4.6924513     -6.7474984e-14 -8.9347064e-14 -148.76831    
     30000   1426.0523      262.87951      1163.1728      320.69319      10358.712      1.0177122      4455.7805     -153.32744     -4.6924513     -6.7834575e-14 -8.9348688e-14 -153.32744    
     35000   1407.911       244.4437       1163.4672      298.2029       4331.1328      1.0177122      4455.7805     -153.05024     -4.6924513     -6.7459708e-14 -8.9349528e-14 -153.05024    
     40000   1400.5762      254.79425      1145.782       310.82979      3776.7272      1.0177122      4455.7805     -150.23245     -4.6924513     -6.7686952e-14 -8.9346759e-14 -150.23245    
     45000   1401.9529      250.69756      1151.2554      305.83214      5699.5673      1.0177122      4455.7805     -150.23659     -4.6924513     -6.7169586e-14 -8.9347839e-14 -150.23659    
     50000   1417.588       254.1323       1163.4557      310.02226      1109.8113      1.0177122      4455.7805     -142.17588     -4.6924513     -6.7388321e-14 -8.9348766e-14 -142.17588    
     55000   1388.0098      243.13954      1144.8702      296.61191      10250.36       1.0177122      4455.7805     -156.60536     -4.6924513     -6.7425929e-14 -8.9351819e-14 -156.60536    
     60000   1415.03        244.71565      1170.3143      298.53465      11120.535      1.0177122      4455.7805     -153.86123     -4.6924513     -6.7852691e-14 -8.934934e-14  -153.86123    
     65000   1398.0759      243.34479      1154.7311      296.86231      6352.9041      1.0177122      4455.7805     -152.92768     -4.6924513     -6.7856794e-14 -8.9349014e-14 -152.92768    
     70000   1411.022       254.14316      1156.8788      310.0355       4186.6208      1.0177122      4455.7805     -150.44929     -4.6924513     -6.7387065e-14 -8.9350194e-14 -150.44929    
     75000   1404.1786      250.69016      1153.4885      305.82311      3943.9468      1.0177122      4455.7805     -151.06504     -4.6924513     -6.7421444e-14 -8.9348898e-14 -151.06504    
     80000   1395.4974      235.35618      1160.1413      287.1168       8141.2882      1.0177122      4455.7805     -153.85026     -4.6924513     -6.7509739e-14 -8.9346822e-14 -153.85026    
     85000   1421.027       263.1874       1157.8396      321.0688       5770.7794      1.0177122      4455.7805     -157.28674     -4.6924513     -6.7446198e-14 -8.9350133e-14 -157.28674    
     90000   1389.9335      244.30446      1145.629       298.03303      5022.6149      1.0177122      4455.7805     -154.6659      -4.6924513     -6.7533566e-14 -8.9348376e-14 -154.6659     
     95000   1409.5949      245.44889      1164.1461      299.42915      5790.3965      1.0177122      4455.7805     -150.10415     -4.6924513     -6.746646e-14  -8.9345676e-14 -150.10415    
    100000   1417.3166      258.61521      1158.7014      315.49107      8059.5668      1.0177122      4455.7805     -145.61761     -4.6924513     -6.7499553e-14 -8.9347535e-14 -145.61761    
    105000   1422.8496      250.25385      1172.5958      305.29084      8573.6812      1.0177122      4455.7805     -150.55296     -4.6924513     -6.7535587e-14 -8.9346859e-14 -150.55296    
    110000   1401.8018      253.59917      1148.2026      309.37188      6009.9889      1.0177122      4455.7805     -155.89616     -4.6924513     -6.7724038e-14 -8.9350769e-14 -155.89616    
    115000   1418.0349      260.40337      1157.6315      317.67248      6013.0905      1.0177122      4455.7805     -147.56664     -4.6924513     -6.7616774e-14 -8.9348729e-14 -147.56664    
    120000   1407.7602      268.80404      1138.9561      327.92068      8295.7617      1.0177122      4455.7805     -155.83717     -4.6924513     -6.7293432e-14 -8.9347326e-14 -155.83717    
    125000   1399.3437      251.51639      1147.8273      306.83104      8451.2302      1.0177122      4455.7805     -153.64953     -4.6924513     -6.7384081e-14 -8.9347287e-14 -153.64953    
    130000   1428.8412      267.07184      1161.7694      325.80751      8356.2731      1.0177122      4455.7805     -153.73712     -4.6924513     -6.7629679e-14 -8.9345828e-14 -153.73712    
    135000   1413.7188      259.48903      1154.2298      316.55706      7844.1531      1.0177122      4455.7805     -150.09756     -4.6924513     -6.7729057e-14 -8.9342708e-14 -150.09756    
    140000   1413.2354      248.74322      1164.4922      303.44798      5838.1411      1.0177122      4455.7805     -152.12952     -4.6924513     -6.7467819e-14 -8.9347888e-14 -152.12952    
    145000   1408.5618      247.55903      1161.0028      302.00336      4490.3443      1.0177122      4455.7805     -150.24955     -4.6924513     -6.7500516e-14 -8.934751e-14  -150.24955    
    150000   1395.3642      255.03799      1140.3263      311.12713      6540.9218      1.0177122      4455.7805     -142.38579     -4.6924513     -6.7762445e-14 -8.9344834e-14 -142.38579    
    155000   1368.1843      228.7983       1139.386       279.11668      4221.6933      1.0177122      4455.7805     -150.79093     -4.6924513     -6.7387307e-14 -8.9349969e-14 -150.79093    
    160000   1411.0492      243.73447      1167.3147      297.33769      9213.4037      1.0177122      4455.7805     -144.41372     -4.6924513     -6.7510268e-14 -8.9346529e-14 -144.41372    
    165000   1410.0514      259.64743      1150.404       316.75029      7316.3734      1.0177122      4455.7805     -147.39346     -4.6924513     -6.7591494e-14 -8.9350735e-14 -147.39346    
    170000   1417.254       258.77215      1158.4819      315.68253      5545.7524      1.0177122      4455.7805     -155.00677     -4.6924513     -6.745618e-14  -8.934994e-14  -155.00677    
    175000   1415.7987      251.17418      1164.6245      306.41358      4390.5766      1.0177122      4455.7805     -159.20473     -4.6924513     -6.747346e-14  -8.9346551e-14 -159.20473    
    180000   1436.27        262.14641      1174.1236      319.79886      4900.0288      1.0177122      4455.7805     -152.80474     -4.6924513     -6.7516918e-14 -8.9347668e-14 -152.80474    
    185000   1381.7656      230.10126      1151.6644      280.70619      6206.302       1.0177122      4455.7805     -149.80767     -4.6924513     -6.7756516e-14 -8.9350093e-14 -149.80767    
    190000   1432.2982      269.10488      1163.1933      328.28768      5001.7302      1.0177122      4455.7805     -141.96259     -4.6924513     -6.7412342e-14 -8.934166e-14  -141.96259    
    195000   1413.9201      248.06145      1165.8587      302.61628      6018.377       1.0177122      4455.7805     -152.20888     -4.6924513     -6.7634027e-14 -8.9348433e-14 -152.20888    
    200000   1411.1293      237.84623      1173.2831      290.15448      5801.7574      1.0177122      4455.7805     -141.70208     -4.6924513     -6.7525888e-14 -8.9350122e-14 -141.70208    
Loop time of 31.1841 on 4 procs for 200000 steps with 276 atoms

Performance: 554.128 ns/day, 0.043 hours/ns, 6413.518 timesteps/s
99.7% CPU use with 4 MPI tasks x no OpenMP threads

MPI task timing breakdown:
Section |  min time  |  avg time  |  max time  |%varavg| %total
---------------------------------------------------------------
Pair    | 20.317     | 21.892     | 23.304     |  29.4 | 70.20
Bond    | 1.0159     | 1.0802     | 1.1441     |   4.4 |  3.46
Kspace  | 0.84649    | 2.3432     | 3.9529     |  91.7 |  7.51
Neigh   | 0          | 0          | 0          |   0.0 |  0.00
Comm    | 4.8904     | 4.9329     | 4.9671     |   1.3 | 15.82
Output  | 0.00043858 | 0.00046205 | 0.00052829 |   0.0 |  0.00
Modify  | 0.7056     | 0.72033    | 0.73151    |   1.2 |  2.31
Other   |            | 0.2152     |            |       |  0.69

Nlocal:             69 ave          73 max          64 min
Histogram: 1 0 1 0 0 0 0 0 0 2
Nghost:           3704 ave        3726 max        3681 min
Histogram: 1 1 0 0 0 0 0 0 0 2
Neighs:        27322.2 ave       29179 max       24979 min
Histogram: 1 0 1 0 0 0 0 0 0 2

Total # of neighbors = 109289
Ave neighs/atom = 395.97464
Ave special neighs/atom = 6.4347826
Neighbor list builds = 0
Dangerous builds = 0
unfix			ADAPT

#------------------------------------------------------------------------------#
# sampling
#------------------------------------------------------------------------------#

reset_timestep	0

variable		elec equal 2*(elong+ecoul)
variable		dudlam equal v_elec/${lambda}
variable		dudlam equal v_elec/1e-08
fix				ELEC all ave/time 250 1 250 v_dudlam file q_${lambda}.lmp
fix				ELEC all ave/time 250 1 250 v_dudlam file q_1e-08.lmp

thermo_style	custom step etotal ke pe temp press density vol evdwl etail ecoul elong epair v_elec
thermo			250

run 			500000
Ewald initialization ...
  using 12-bit tables for long-range coulomb (../kspace.cpp:342)
  G vector (1/distance) = 0.2041222
  estimated absolute RMS force accuracy = 2.2911025e-16
  estimated relative force accuracy = 6.8995872e-19
  KSpace vectors: actual max1d max3d = 2 1 13
                  kxmax kymax kzmax  = 1 1 1
Generated 0 of 10 mixed pair_coeff terms from arithmetic mixing rule
WARNING: Inconsistent image flags (../domain.cpp:819)
Per MPI rank memory allocation (min/avg/max) = 16.18 | 16.18 | 16.18 Mbytes
   Step         TotEng         KinEng         PotEng          Temp          Press         Density         Volume         E_vdwl         E_tail         E_coul         E_long         E_pair         v_elec    
         0   1411.1293      237.84623      1173.2831      290.15448      5801.7574      1.0177122      4455.7805     -141.70208     -4.6924513     -8.166424e-14  -7.5112556e-14 -141.70208     -3.1355359e-13
       250   1413.5704      267.72062      1145.8497      326.59899      4780.9252      1.0177122      4455.7805     -152.89998     -4.6924513     -8.173441e-14  -7.5112019e-14 -152.89998     -3.1369286e-13
       500   1430.2356      253.01926      1177.2163      308.66444      5161.2971      1.0177122      4455.7805     -145.81245     -4.6924513     -8.1458202e-14 -7.5109296e-14 -145.81245     -3.13135e-13  
       750   1412.1096      240.02756      1172.082       292.81553      2967.1753      1.0177122      4455.7805     -148.19563     -4.6924513     -8.1645076e-14 -7.5107915e-14 -148.19563     -3.1350598e-13
      1000   1389.1482      240.37997      1148.7682      293.24545      8550.628       1.0177122      4455.7805     -148.42652     -4.6924513     -8.2054321e-14 -7.5111323e-14 -148.42652     -3.1433129e-13
      1250   1400.1112      232.66807      1167.4431      283.83751      4592.7618      1.0177122      4455.7805     -150.67049     -4.6924513     -8.1550451e-14 -7.5111024e-14 -150.67049     -3.1332295e-13
      1500   1381.2209      242.08108      1139.1399      295.32068      5815.526       1.0177122      4455.7805     -154.7304      -4.6924513     -8.1642655e-14 -7.5110962e-14 -154.7304      -3.1350724e-13
      1750   1396.5         241.00498      1155.495       294.00792      4369.0877      1.0177122      4455.7805     -153.46377     -4.6924513     -8.1422045e-14 -7.5113424e-14 -153.46377     -3.1307094e-13
      2000   1421.1652      241.25309      1179.9121      294.31059      8591.4686      1.0177122      4455.7805     -148.91828     -4.6924513     -8.1531514e-14 -7.5108974e-14 -148.91828     -3.1328098e-13
      2250   1386.6666      241.25646      1145.4102      294.3147       3169.6587      1.0177122      4455.7805     -143.30824     -4.6924513     -8.1570094e-14 -7.5111268e-14 -143.30824     -3.1336272e-13
      2500   1388.6428      249.88614      1138.7567      304.84226      8451.3199      1.0177122      4455.7805     -153.62436     -4.6924513     -8.1482736e-14 -7.5112377e-14 -153.62436     -3.1319022e-13
      2750   1390.9806      241.11786      1149.8628      294.14562      6175.6788      1.0177122      4455.7805     -151.11221     -4.6924513     -8.1859179e-14 -7.5112542e-14 -151.11221     -3.1394344e-13
      3000   1390.3683      240.75895      1149.6093      293.70778      7031.4523      1.0177122      4455.7805     -156.8594      -4.6924513     -8.1923312e-14 -7.5106983e-14 -156.8594      -3.1406059e-13
      3250   1399.1537      250.67326      1148.4805      305.80249      5322.3347      1.0177122      4455.7805     -155.2144      -4.6924513     -8.1897362e-14 -7.511269e-14  -155.2144      -3.140201e-13 
      3500   1413.1871      255.02447      1158.1626      311.11064      9496.7295      1.0177122      4455.7805     -157.8112      -4.6924513     -8.1780618e-14 -7.5110606e-14 -157.8112      -3.1378245e-13
      3750   1416.847       258.42248      1158.4246      315.25595      3652.0931      1.0177122      4455.7805     -152.12361     -4.6924513     -8.1467448e-14 -7.5112609e-14 -152.12361     -3.1316011e-13
      4000   1414.3782      248.02132      1166.3569      302.56732      4548.1697      1.0177122      4455.7805     -161.95584     -4.6924513     -8.1504203e-14 -7.5112129e-14 -161.95584     -3.1323267e-13
      4250   1396.4705      235.19233      1161.2782      286.91692      7460.2065      1.0177122      4455.7805     -147.46868     -4.6924513     -8.1761698e-14 -7.511152e-14  -147.46868     -3.1374644e-13
      4500   1432.6169      272.04362      1160.5733      331.87271      9126.3663      1.0177122      4455.7805     -152.14043     -4.6924513     -8.176378e-14  -7.5109924e-14 -152.14043     -3.1374741e-13
      4750   1419.6912      257.77096      1161.9203      314.46115      7165.5257      1.0177122      4455.7805     -151.62789     -4.6924513     -8.170121e-14  -7.5112974e-14 -151.62789     -3.1362837e-13
      5000   1435.4559      264.66006      1170.7958      322.86533      10973.566      1.0177122      4455.7805     -150.05311     -4.6924513     -8.1798101e-14 -7.5110944e-14 -150.05311     -3.1381809e-13
      5250   1419.809       259.56186      1160.2471      316.64591      6815.3482      1.0177122      4455.7805     -142.50164     -4.6924513     -8.1667192e-14 -7.5111196e-14 -142.50164     -3.1355678e-13
      5500   1407.1552      245.78648      1161.3687      299.84099      5017.4586      1.0177122      4455.7805     -151.59852     -4.6924513     -8.1695166e-14 -7.5113243e-14 -151.59852     -3.1361682e-13
      5750   1397.9146      245.64913      1152.2654      299.67343      4238.9654      1.0177122      4455.7805     -155.56509     -4.6924513     -8.147486e-14  -7.5111105e-14 -155.56509     -3.1317193e-13
      6000   1403.1679      251.84949      1151.3184      307.2374       12452.209      1.0177122      4455.7805     -154.56847     -4.6924513     -8.1849129e-14 -7.5107439e-14 -154.56847     -3.1391313e-13
      6250   1424.2448      264.73839      1159.5064      322.96089      3070.0261      1.0177122      4455.7805     -153.80922     -4.6924513     -8.1620278e-14 -7.5107383e-14 -153.80922     -3.1345532e-13
      6500   1430.0833      265.7193       1164.364       324.15752      7196.8757      1.0177122      4455.7805     -148.54665     -4.6924513     -8.1933129e-14 -7.5110853e-14 -148.54665     -3.1408796e-13
      6750   1405.5388      251.86768      1153.6711      307.25959      5357.1509      1.0177122      4455.7805     -157.23068     -4.6924513     -8.1789766e-14 -7.5110551e-14 -157.23068     -3.1380063e-13
      7000   1406.2962      250.52763      1155.7686      305.62483      8434.3361      1.0177122      4455.7805     -149.13254     -4.6924513     -8.1796304e-14 -7.5113128e-14 -149.13254     -3.1381886e-13
      7250   1435.7132      259.84903      1175.8641      316.99624      7430.5834      1.0177122      4455.7805     -152.23051     -4.6924513     -8.1896113e-14 -7.511159e-14  -152.23051     -3.1401541e-13
      7500   1418.8745      260.96859      1157.9059      318.36201      5628.6528      1.0177122      4455.7805     -148.161       -4.6924513     -8.1463067e-14 -7.5112517e-14 -148.161       -3.1315117e-13
      7750   1419.5639      255.74714      1163.8168      311.99224      8054.7097      1.0177122      4455.7805     -151.48364     -4.6924513     -8.1774734e-14 -7.5110637e-14 -151.48364     -3.1377074e-13
      8000   1420.2385      263.68628      1156.5522      321.67739      9471.547       1.0177122      4455.7805     -148.68888     -4.6924513     -8.2091744e-14 -7.5110244e-14 -148.68888     -3.1440398e-13
      8250   1386.8909      250.48367      1136.4073      305.5712       3934.44        1.0177122      4455.7805     -153.6132      -4.6924513     -8.183213e-14  -7.5111865e-14 -153.6132      -3.1388799e-13
      8500   1399.313       254.53583      1144.7772      310.51454      8630.1126      1.0177122      4455.7805     -155.25587     -4.6924513     -8.1773457e-14 -7.5111929e-14 -155.25587     -3.1377077e-13
      8750   1406.2684      243.9921       1162.2764      297.65197      3596.8933      1.0177122      4455.7805     -152.91962     -4.6924513     -8.1835227e-14 -7.5110533e-14 -152.91962     -3.1389152e-13
      9000   1416.536       254.92641      1161.6096      310.99101      9396.9512      1.0177122      4455.7805     -149.74635     -4.6924513     -8.1836612e-14 -7.5108632e-14 -149.74635     -3.1389049e-13
      9250   1436.692       269.76504      1166.9269      329.09303      5116.1305      1.0177122      4455.7805     -152.62051     -4.6924513     -8.1985342e-14 -7.5111018e-14 -152.62051     -3.1419272e-13
      9500   1420.9203      264.10513      1156.8152      322.18836      9356.2828      1.0177122      4455.7805     -154.43965     -4.6924513     -8.1823261e-14 -7.5112019e-14 -154.43965     -3.1387056e-13
      9750   1380.6306      250.58799      1130.0426      305.69847      1469.8522      1.0177122      4455.7805     -154.20998     -4.6924513     -8.136316e-14  -7.5112425e-14 -154.20998     -3.1295117e-13
     10000   1408.817       239.17726      1169.6397      291.77823      12769.731      1.0177122      4455.7805     -141.68547     -4.6924513     -8.1877226e-14 -7.5112074e-14 -141.68547     -3.139786e-13 
     10250   1422.515       254.27506      1168.2399      310.19642      7578.3137      1.0177122      4455.7805     -150.89135     -4.6924513     -8.1988579e-14 -7.5113119e-14 -150.89135     -3.1420339e-13
     10500   1396.3516      245.67339      1150.6782      299.70303      4447.1808      1.0177122      4455.7805     -154.94079     -4.6924513     -8.1435299e-14 -7.5111471e-14 -154.94079     -3.1309354e-13
     10750   1402.5705      257.69252      1144.8779      314.36546      12457.5        1.0177122      4455.7805     -148.90804     -4.6924513     -8.1799078e-14 -7.5112734e-14 -148.90804     -3.1382362e-13
     11000   1412.4798      258.72316      1153.7566      315.62276      5906.1333      1.0177122      4455.7805     -152.6445      -4.6924513     -8.168169e-14  -7.5112708e-14 -152.6445      -3.135888e-13 
     11250   1406.8265      252.23608      1154.5904      307.70901      5197.1534      1.0177122      4455.7805     -151.86324     -4.6924513     -8.1411178e-14 -7.5105721e-14 -151.86324     -3.130338e-13 
     11500   1404.2706      251.88396      1152.3866      307.27945      8430.1865      1.0177122      4455.7805     -154.04937     -4.6924513     -8.1680762e-14 -7.5110382e-14 -154.04937     -3.1358229e-13
     11750   1396.773       251.43774      1145.3352      306.7351       6546.5681      1.0177122      4455.7805     -151.64407     -4.6924513     -8.1809142e-14 -7.5112819e-14 -151.64407     -3.1384392e-13
     12000   1421.2441      255.18787      1166.0562      311.30997      6999.4569      1.0177122      4455.7805     -149.91808     -4.6924513     -8.1772892e-14 -7.5113691e-14 -149.91808     -3.1377317e-13
     12250   1392.3823      251.5514       1140.8309      306.87375      2644.0727      1.0177122      4455.7805     -150.31117     -4.6924513     -8.153042e-14  -7.5111799e-14 -150.31117     -3.1328444e-13
     12500   1380.6139      247.55208      1133.0618      301.99489      6786.1675      1.0177122      4455.7805     -154.89339     -4.6924513     -8.1580517e-14 -7.5113396e-14 -154.89339     -3.1338783e-13
     12750   1413.4659      258.0905       1155.3754      314.85096      10846.892      1.0177122      4455.7805     -155.33577     -4.6924513     -8.1641284e-14 -7.5109199e-14 -155.33577     -3.1350097e-13
     13000   1397.1941      243.22291      1153.9712      296.71362      8594.5478      1.0177122      4455.7805     -155.75125     -4.6924513     -8.1722858e-14 -7.5110668e-14 -155.75125     -3.1366705e-13
     13250   1400.4541      278.5666       1121.8875      339.83027      8827.4052      1.0177122      4455.7805     -150.00377     -4.6924513     -8.1937714e-14 -7.5108653e-14 -150.00377     -3.1409274e-13
     13500   1399.4285      242.18213      1157.2464      295.44395      5347.4129      1.0177122      4455.7805     -144.19545     -4.6924513     -8.18953e-14   -7.5109479e-14 -144.19545     -3.1400956e-13
     13750   1402.5541      239.23904      1163.3151      291.8536       7938.2297      1.0177122      4455.7805     -158.93796     -4.6924513     -8.1719126e-14 -7.5111883e-14 -158.93796     -3.1366202e-13
     14000   1414.6839      244.73863      1169.9452      298.56269      3911.6523      1.0177122      4455.7805     -155.6003      -4.6924513     -8.1789799e-14 -7.5110265e-14 -155.6003      -3.1380013e-13
     14250   1378.3281      236.14474      1142.1833      288.07879      5946.1254      1.0177122      4455.7805     -156.17718     -4.6924513     -8.1435407e-14 -7.5111938e-14 -156.17718     -3.1309469e-13
     14500   1377.0674      256.19003      1120.8774      312.53253      8441.1859      1.0177122      4455.7805     -157.72869     -4.6924513     -8.1500315e-14 -7.5111249e-14 -157.72869     -3.1322313e-13
     14750   1409.2731      239.57759      1169.6955      292.26661      3174.7465      1.0177122      4455.7805     -146.86816     -4.6924513     -8.1782284e-14 -7.510969e-14  -146.86816     -3.1378395e-13
     15000   1424.0458      265.94992      1158.0959      324.43886      8027.4146      1.0177122      4455.7805     -145.0981      -4.6924513     -8.1824621e-14 -7.5110265e-14 -145.0981      -3.1386977e-13
     15250   1405.4134      239.71801      1165.6954      292.4379       9124.6203      1.0177122      4455.7805     -149.34398     -4.6924513     -8.1706066e-14 -7.5112871e-14 -149.34398     -3.1363787e-13
     15500   1398.4568      245.29708      1153.1597      299.24395      4039.9232      1.0177122      4455.7805     -143.65389     -4.6924513     -8.152684e-14  -7.511008e-14  -143.65389     -3.1327384e-13
     15750   1385.5397      245.51066      1140.0291      299.5045       3093.0878      1.0177122      4455.7805     -150.39604     -4.6924513     -8.1558068e-14 -7.510815e-14  -150.39604     -3.1333244e-13
     16000   1379.6955      217.80492      1161.8906      265.70559      3710.8992      1.0177122      4455.7805     -145.78226     -4.6924513     -8.1491775e-14 -7.5111954e-14 -145.78226     -3.1320746e-13
     16250   1413.7233      234.86284      1178.8605      286.51496      8585.4941      1.0177122      4455.7805     -155.33668     -4.6924513     -8.147602e-14  -7.5110968e-14 -155.33668     -3.1317398e-13
     16500   1411.9154      253.6176       1158.2978      309.39436      7708.9446      1.0177122      4455.7805     -140.63668     -4.6924513     -8.2029598e-14 -7.5109527e-14 -140.63668     -3.1427825e-13
     16750   1422.6171      264.81249      1157.8046      323.05128      3471.4924      1.0177122      4455.7805     -147.14798     -4.6924513     -8.1600555e-14 -7.5105571e-14 -147.14798     -3.1341225e-13
     17000   1410.8421      250.88156      1159.9605      306.0566       10871.525      1.0177122      4455.7805     -145.85911     -4.6924513     -8.1787058e-14 -7.5110541e-14 -145.85911     -3.137952e-13 
     17250   1388.2269      240.87317      1147.3537      293.84711      3102.2308      1.0177122      4455.7805     -151.79671     -4.6924513     -8.1676713e-14 -7.5113099e-14 -151.79671     -3.1357962e-13
     17500   1392.8525      238.02093      1154.8316      290.36759      7178.1043      1.0177122      4455.7805     -155.61011     -4.6924513     -8.1795947e-14 -7.5111114e-14 -155.61011     -3.1381412e-13
     17750   1412.8344      275.85921      1136.9752      336.52745      9155.8342      1.0177122      4455.7805     -151.33659     -4.6924513     -8.1832428e-14 -7.5109204e-14 -151.33659     -3.1388327e-13
     18000   1413.9507      269.43462      1144.5161      328.68994      10156.812      1.0177122      4455.7805     -149.10268     -4.6924513     -8.1875322e-14 -7.5112543e-14 -149.10268     -3.1397573e-13
     18250   1407.3155      259.46611      1147.8494      316.52911      4588.8103      1.0177122      4455.7805     -154.97719     -4.6924513     -8.1842301e-14 -7.5110987e-14 -154.97719     -3.1390658e-13
     18500   1385.255       251.82342      1133.4315      307.2056       6705.8899      1.0177122      4455.7805     -155.80419     -4.6924513     -8.175661e-14  -7.5111571e-14 -155.80419     -3.1373636e-13
     18750   1379.7361      222.40652      1157.3296      271.3192       6762.3392      1.0177122      4455.7805     -148.61082     -4.6924513     -8.1564184e-14 -7.5110997e-14 -148.61082     -3.1335036e-13
     19000   1402.8921      254.24329      1148.6488      310.15766      7465.4653      1.0177122      4455.7805     -153.8091      -4.6924513     -8.1708199e-14 -7.5110511e-14 -153.8091      -3.1363742e-13
     19250   1398.6585      263.63719      1135.0213      321.61751      8848.3157      1.0177122      4455.7805     -155.25605     -4.6924513     -8.1667628e-14 -7.5112456e-14 -155.25605     -3.1356017e-13
     19500   1399.3932      253.29054      1146.1026      308.99537      6653.1544      1.0177122      4455.7805     -146.81086     -4.6924513     -8.1923273e-14 -7.5111386e-14 -146.81086     -3.1406932e-13
     19750   1381.2436      235.74642      1145.4972      287.59287      5627.9758      1.0177122      4455.7805     -144.96212     -4.6924513     -8.189769e-14  -7.5111601e-14 -144.96212     -3.1401858e-13
     20000   1431.3095      266.13486      1165.1747      324.66448      5516.2593      1.0177122      4455.7805     -149.82085     -4.6924513     -8.1625985e-14 -7.5111376e-14 -149.82085     -3.1347472e-13
     20250   1399.7649      252.82428      1146.9406      308.42657      8903.4547      1.0177122      4455.7805     -156.22373     -4.6924513     -8.1657207e-14 -7.5107963e-14 -156.22373     -3.1353034e-13
     20500   1375.9143      248.55417      1127.3601      303.21735      10155.314      1.0177122      4455.7805     -146.34629     -4.6924513     -8.2047651e-14 -7.5111696e-14 -146.34629     -3.1431869e-13
     20750   1397.1709      253.18877      1143.9822      308.87122      5730.3652      1.0177122      4455.7805     -159.49156     -4.6924513     -8.1875269e-14 -7.5111305e-14 -159.49156     -3.1397315e-13
     21000   1374.9121      245.00195      1129.9101      298.88392      7987.6598      1.0177122      4455.7805     -152.42916     -4.6924513     -8.1553566e-14 -7.5110106e-14 -152.42916     -3.1332734e-13
     21250   1418.4445      253.69065      1164.7538      309.48348      6182.8819      1.0177122      4455.7805     -150.19522     -4.6924513     -8.1661995e-14 -7.5110341e-14 -150.19522     -3.1354467e-13
     21500   1383.8849      239.14709      1144.7378      291.74143      7000.8492      1.0177122      4455.7805     -152.60689     -4.6924513     -8.1657526e-14 -7.5112353e-14 -152.60689     -3.1353976e-13
     21750   1419.5659      280.71159      1138.8543      342.44699      8770.7367      1.0177122      4455.7805     -154.30644     -4.6924513     -8.1582774e-14 -7.5109583e-14 -154.30644     -3.1338471e-13
     22000   1390.2461      227.23935      1163.0068      277.21488      945.1248       1.0177122      4455.7805     -154.6419      -4.6924513     -8.1590494e-14 -7.5109116e-14 -154.6419      -3.1339922e-13
     22250   1421.7284      274.07621      1147.6521      334.35233      4677.2462      1.0177122      4455.7805     -146.64315     -4.6924513     -8.1829977e-14 -7.5113513e-14 -146.64315     -3.1388698e-13
     22500   1420.6574      247.98119      1172.6762      302.51836      3490.2463      1.0177122      4455.7805     -153.85948     -4.6924513     -8.1603056e-14 -7.5110347e-14 -153.85948     -3.1342681e-13
     22750   1412.7849      259.84399      1152.9409      316.99009      7782.7206      1.0177122      4455.7805     -146.3163      -4.6924513     -8.1348567e-14 -7.511002e-14  -146.3163      -3.1291717e-13
     23000   1410.6575      258.04321      1152.6143      314.79328      10341.367      1.0177122      4455.7805     -145.91103     -4.6924513     -8.2138741e-14 -7.5111759e-14 -145.91103     -3.14501e-13  
     23250   1408.2608      260.52969      1147.7311      317.8266       5482.4272      1.0177122      4455.7805     -154.4718      -4.6924513     -8.1557283e-14 -7.5112624e-14 -154.4718      -3.1333981e-13
     23500   1401.8017      232.8981       1168.9036      284.11813      3530.5093      1.0177122      4455.7805     -152.40265     -4.6924513     -8.1829154e-14 -7.5109685e-14 -152.40265     -3.1387768e-13
     23750   1397.5513      244.61859      1152.9327      298.41624      8999.7363      1.0177122      4455.7805     -160.55234     -4.6924513     -8.1385834e-14 -7.5110853e-14 -160.55234     -3.1299337e-13
     24000   1408.0485      242.55693      1165.4916      295.90117      1076.606       1.0177122      4455.7805     -149.74092     -4.6924513     -8.1697777e-14 -7.511188e-14  -149.74092     -3.1361931e-13
     24250   1420.0392      270.85156      1149.1876      330.41849      9118.0784      1.0177122      4455.7805     -152.68262     -4.6924513     -8.1826314e-14 -7.5109302e-14 -152.68262     -3.1387123e-13
     24500   1427.9512      264.80395      1163.1472      323.04086      5710.7434      1.0177122      4455.7805     -154.20939     -4.6924513     -8.134213e-14  -7.5112434e-14 -154.20939     -3.1290913e-13
     24750   1405.0067      250.43165      1154.575       305.50775      10527.371      1.0177122      4455.7805     -153.24667     -4.6924513     -8.2225643e-14 -7.511185e-14  -153.24667     -3.1467499e-13
     25000   1384.1927      243.7748       1140.4179      297.38688      7822.4126      1.0177122      4455.7805     -150.02612     -4.6924513     -8.1985094e-14 -7.5110701e-14 -150.02612     -3.1419159e-13
     25250   1419.4775      263.02056      1156.4569      320.86526      4932.6602      1.0177122      4455.7805     -157.97289     -4.6924513     -8.1812169e-14 -7.5112952e-14 -157.97289     -3.1385024e-13
     25500   1391.6886      238.70782      1152.9808      291.20555      6192.6933      1.0177122      4455.7805     -157.00573     -4.6924513     -8.1526984e-14 -7.5111011e-14 -157.00573     -3.1327599e-13
     25750   1388.4421      247.1625       1141.2796      301.51962      8579.0914      1.0177122      4455.7805     -152.46636     -4.6924513     -8.1622407e-14 -7.5113436e-14 -152.46636     -3.1347168e-13
     26000   1382.409       245.32732      1137.0816      299.28085      4335.9141      1.0177122      4455.7805     -160.01507     -4.6924513     -8.1562006e-14 -7.5112289e-14 -160.01507     -3.1334859e-13
     26250   1403.1433      263.95603      1139.1872      322.00647      4797.5889      1.0177122      4455.7805     -154.61688     -4.6924513     -8.1593047e-14 -7.5110539e-14 -154.61688     -3.1340717e-13
     26500   1415.3724      257.87454      1157.4979      314.5875       3295.202       1.0177122      4455.7805     -151.34021     -4.6924513     -8.1321607e-14 -7.5109282e-14 -151.34021     -3.1286178e-13
     26750   1412.9612      257.06285      1155.8983      313.5973       6042.2302      1.0177122      4455.7805     -143.82529     -4.6924513     -8.1690975e-14 -7.511151e-14  -143.82529     -3.1360497e-13
     27000   1406.4502      236.34627      1170.1039      288.32464      5535.4889      1.0177122      4455.7805     -146.73962     -4.6924513     -8.1673841e-14 -7.5111325e-14 -146.73962     -3.1357033e-13
     27250   1421.4032      257.60876      1163.7945      314.26328      5505.247       1.0177122      4455.7805     -157.20752     -4.6924513     -8.1680378e-14 -7.5111696e-14 -157.20752     -3.1358415e-13
     27500   1393.1714      234.38396      1158.7874      285.93076      6864.5524      1.0177122      4455.7805     -152.61138     -4.6924513     -8.1712005e-14 -7.5112901e-14 -152.61138     -3.1364981e-13
     27750   1444.9968      258.48457      1186.5123      315.3317       6771.0966      1.0177122      4455.7805     -146.44704     -4.6924513     -8.1622214e-14 -7.5111889e-14 -146.44704     -3.1346821e-13
     28000   1397.6419      256.04718      1141.5947      312.35827      7204.4602      1.0177122      4455.7805     -155.42573     -4.6924513     -8.182498e-14  -7.5111913e-14 -155.42573     -3.1387379e-13
     28250   1406.7136      245.40649      1161.3071      299.37743      5194.7007      1.0177122      4455.7805     -155.38817     -4.6924513     -8.1943249e-14 -7.5112964e-14 -155.38817     -3.1411243e-13
     28500   1397.6993      246.63762      1151.0617      300.87931      2446.909       1.0177122      4455.7805     -155.56        -4.6924513     -8.151139e-14  -7.511136e-14  -155.56        -3.132455e-13 
     28750   1411.2308      265.68051      1145.5503      324.1102       10234.665      1.0177122      4455.7805     -153.4535      -4.6924513     -8.1948582e-14 -7.5110231e-14 -153.4535      -3.1411763e-13
     29000   1401.2308      243.51721      1157.7135      297.07264      1886.6312      1.0177122      4455.7805     -153.98488     -4.6924513     -8.1781636e-14 -7.5111945e-14 -153.98488     -3.1378716e-13
     29250   1392.6529      238.87736      1153.7755      291.41238      5677.5556      1.0177122      4455.7805     -153.60781     -4.6924513     -8.1863673e-14 -7.5112173e-14 -153.60781     -3.1395169e-13
     29500   1400.566       249.77868      1150.7873      304.71117      5721.96        1.0177122      4455.7805     -155.24342     -4.6924513     -8.1573461e-14 -7.5111585e-14 -155.24342     -3.1337009e-13
     29750   1410.4037      238.49317      1171.9105      290.9437       6603.6552      1.0177122      4455.7805     -152.84474     -4.6924513     -8.1699974e-14 -7.511224e-14  -152.84474     -3.1362443e-13
     30000   1370.0397      234.15987      1135.8799      285.65739      7471.1778      1.0177122      4455.7805     -152.724       -4.6924513     -8.1780026e-14 -7.5113085e-14 -152.724       -3.1378622e-13
     30250   1384.4492      221.62821      1162.821       270.36971      9175.9999      1.0177122      4455.7805     -158.78005     -4.6924513     -8.1894439e-14 -7.5111148e-14 -158.78005     -3.1401118e-13
     30500   1398.215       255.59507      1142.62        311.80672      6830.9643      1.0177122      4455.7805     -155.00653     -4.6924513     -8.1638201e-14 -7.5113586e-14 -155.00653     -3.1350357e-13
     30750   1393.5001      240.29041      1153.2096      293.1362       12157.29       1.0177122      4455.7805     -155.5513      -4.6924513     -8.167207e-14  -7.5111847e-14 -155.5513      -3.1356783e-13
     31000   1390.7752      248.05243      1142.7228      302.60527      5648.9324      1.0177122      4455.7805     -157.66851     -4.6924513     -8.1936951e-14 -7.5113281e-14 -157.66851     -3.1410046e-13
     31250   1405.0839      238.21961      1166.8643      290.60997      2057.3627      1.0177122      4455.7805     -151.52035     -4.6924513     -8.1726916e-14 -7.5112369e-14 -151.52035     -3.1367857e-13
     31500   1419.3724      268.99029      1150.3821      328.14788      210.12349      1.0177122      4455.7805     -153.26057     -4.6924513     -8.1592498e-14 -7.5112839e-14 -153.26057     -3.1341067e-13
     31750   1429.7348      247.92189      1181.8129      302.44603      11933.735      1.0177122      4455.7805     -149.23337     -4.6924513     -8.204687e-14  -7.5111969e-14 -149.23337     -3.1431768e-13
     32000   1396.7391      242.6993       1154.0398      296.07485      4419.5486      1.0177122      4455.7805     -155.12972     -4.6924513     -8.1689334e-14 -7.5111273e-14 -155.12972     -3.1360121e-13
     32250   1391.5391      255.81587      1135.7232      312.07609      5820.4356      1.0177122      4455.7805     -157.10589     -4.6924513     -8.1608527e-14 -7.5112791e-14 -157.10589     -3.1344264e-13
     32500   1444.2439      253.59566      1190.6482      309.3676       5468.0531      1.0177122      4455.7805     -155.96103     -4.6924513     -8.1587112e-14 -7.5109828e-14 -155.96103     -3.1339388e-13
     32750   1389.704       252.63086      1137.0732      308.19061      6329.9166      1.0177122      4455.7805     -155.88564     -4.6924513     -8.1560742e-14 -7.5111687e-14 -155.88564     -3.1334486e-13
     33000   1394.0163      254.15309      1139.8632      310.04762      9042.4656      1.0177122      4455.7805     -155.1439      -4.6924513     -8.1855788e-14 -7.5110394e-14 -155.1439      -3.1393236e-13
     33250   1426.3844      263.46902      1162.9154      321.41235      4933.3275      1.0177122      4455.7805     -155.74683     -4.6924513     -8.1827658e-14 -7.5110713e-14 -155.74683     -3.1387674e-13
     33500   1421.3032      252.11369      1169.1895      307.5597       5282.266       1.0177122      4455.7805     -146.42987     -4.6924513     -8.1814427e-14 -7.5112389e-14 -146.42987     -3.1385363e-13
     33750   1399.8236      253.36723      1146.4563      309.08893      8107.844       1.0177122      4455.7805     -151.4946      -4.6924513     -8.1642858e-14 -7.5111638e-14 -151.4946      -3.1350899e-13
     34000   1400.631       243.85913      1156.7719      297.48976      5931.566       1.0177122      4455.7805     -150.30737     -4.6924513     -8.1606704e-14 -7.511162e-14  -150.30737     -3.1343665e-13
     34250   1390.3281      255.94857      1134.3796      312.23797      8101.332       1.0177122      4455.7805     -152.5398      -4.6924513     -8.1795215e-14 -7.5109494e-14 -152.5398      -3.1380942e-13
     34500   1416.6998      262.63072      1154.0691      320.38969      4875.0025      1.0177122      4455.7805     -143.94436     -4.6924513     -8.1691144e-14 -7.5109202e-14 -143.94436     -3.1360069e-13
     34750   1429.4701      279.61491      1149.8552      341.10912      5567.3683      1.0177122      4455.7805     -147.34652     -4.6924513     -8.1624209e-14 -7.5111809e-14 -147.34652     -3.1347204e-13
     35000   1386.0247      244.80295      1141.2218      298.64115      8023.4127      1.0177122      4455.7805     -147.203       -4.6924513     -8.2023047e-14 -7.5110963e-14 -147.203       -3.1426802e-13
     35250   1419.1393      264.63615      1154.5032      322.83617      4051.5792      1.0177122      4455.7805     -152.66625     -4.6924513     -8.1848934e-14 -7.5110034e-14 -152.66625     -3.1391794e-13
     35500   1413.9009      260.44463      1153.4562      317.72282      5060.1389      1.0177122      4455.7805     -147.32074     -4.6924513     -8.1312659e-14 -7.5109697e-14 -147.32074     -3.1284471e-13
     35750   1408.9966      244.47525      1164.5213      298.24138      10812.63       1.0177122      4455.7805     -147.17758     -4.6924513     -8.1531446e-14 -7.5111226e-14 -147.17758     -3.1328534e-13
     36000   1416.9194      231.56232      1185.3571      282.48858      14319.887      1.0177122      4455.7805     -147.38806     -4.6924513     -8.2023094e-14 -7.5112608e-14 -147.38806     -3.1427141e-13
     36250   1433.9757      264.03572      1169.94        322.10368      2736.9155      1.0177122      4455.7805     -150.84209     -4.6924513     -8.1568913e-14 -7.5109954e-14 -150.84209     -3.1335773e-13
     36500   1425.6142      265.08701      1160.5272      323.38618      7319.5682      1.0177122      4455.7805     -145.14759     -4.6924513     -8.1889108e-14 -7.5112866e-14 -145.14759     -3.1400395e-13
     36750   1395.9332      242.90248      1153.0307      296.32272      4075.5694      1.0177122      4455.7805     -150.05768     -4.6924513     -8.1683875e-14 -7.5107385e-14 -150.05768     -3.1358252e-13
     37000   1395.7613      246.90617      1148.8552      301.20692      4706.2403      1.0177122      4455.7805     -155.51885     -4.6924513     -8.160334e-14  -7.5112368e-14 -155.51885     -3.1343142e-13
     37250   1384.1725      228.24327      1155.9292      278.43958      4621.9867      1.0177122      4455.7805     -145.60591     -4.6924513     -8.161428e-14  -7.5107932e-14 -145.60591     -3.1344443e-13
     37500   1413.5007      241.81729      1171.6834      294.99887      7406.0463      1.0177122      4455.7805     -148.1698      -4.6924513     -8.131142e-14  -7.5113404e-14 -148.1698      -3.1284965e-13
     37750   1430.4564      255.83144      1174.6249      312.09508      8662.6592      1.0177122      4455.7805     -145.39708     -4.6924513     -8.188207e-14  -7.5108864e-14 -145.39708     -3.1398187e-13
     38000   1403.9722      243.75802      1160.2142      297.36641      7909.7052      1.0177122      4455.7805     -159.55729     -4.6924513     -8.1795637e-14 -7.511036e-14  -159.55729     -3.1381199e-13
     38250   1392.494       234.64587      1157.8482      286.25028      5884.5797      1.0177122      4455.7805     -152.03954     -4.6924513     -8.176305e-14  -7.5109686e-14 -152.03954     -3.1374547e-13
     38500   1389.6206      233.28655      1156.334       284.59201      1683.2162      1.0177122      4455.7805     -153.0484      -4.6924513     -8.1335787e-14 -7.5106971e-14 -153.0484      -3.1288552e-13
     38750   1388.1004      253.4976       1134.6028      309.24797      6416.7408      1.0177122      4455.7805     -148.39449     -4.6924513     -8.1899937e-14 -7.5110119e-14 -148.39449     -3.1402011e-13
     39000   1409.2173      240.3625       1168.8548      293.22413      3167.3002      1.0177122      4455.7805     -158.32031     -4.6924513     -8.1574012e-14 -7.5113379e-14 -158.32031     -3.1337478e-13
     39250   1402.2264      245.83828      1156.3881      299.90418      9769.0123      1.0177122      4455.7805     -147.62997     -4.6924513     -8.1914557e-14 -7.5113874e-14 -147.62997     -3.1405686e-13
     39500   1424.0038      266.29676      1157.707       324.86198      3518.3448      1.0177122      4455.7805     -158.26913     -4.6924513     -8.1498094e-14 -7.511168e-14  -158.26913     -3.1321955e-13
     39750   1431.1215      259.05696      1172.0646      316.02997      6118.2024      1.0177122      4455.7805     -146.58314     -4.6924513     -8.1564942e-14 -7.5111815e-14 -146.58314     -3.1335351e-13
     40000   1427.7592      263.08489      1164.6744      320.94374      6759.4718      1.0177122      4455.7805     -150.95017     -4.6924513     -8.1712381e-14 -7.5111429e-14 -150.95017     -3.1364762e-13
     40250   1382.3447      231.49155      1150.8532      282.40225      3872.9713      1.0177122      4455.7805     -150.19756     -4.6924513     -8.1765382e-14 -7.5109992e-14 -150.19756     -3.1375075e-13
     40500   1410.587       272.72366      1137.8634      332.70232      6339.0295      1.0177122      4455.7805     -151.14364     -4.6924513     -8.1287636e-14 -7.5108711e-14 -151.14364     -3.1279269e-13
     40750   1404.7429      245.00016      1159.7427      298.88174      9771.2832      1.0177122      4455.7805     -150.8613      -4.6924513     -8.1663012e-14 -7.5110887e-14 -150.8613      -3.135478e-13 
     41000   1397.2634      258.30602      1138.9573      315.11388      5749.4587      1.0177122      4455.7805     -149.39437     -4.6924513     -8.1653404e-14 -7.5111063e-14 -149.39437     -3.1352893e-13
     41250   1396.0178      248.80588      1147.2119      303.52443      9542.4821      1.0177122      4455.7805     -148.67103     -4.6924513     -8.1847157e-14 -7.5108188e-14 -148.67103     -3.1391069e-13
     41500   1383.1565      237.86936      1145.2871      290.18269      7902.1503      1.0177122      4455.7805     -152.02744     -4.6924513     -8.1882666e-14 -7.5109204e-14 -152.02744     -3.1398374e-13
     41750   1422.7756      261.92808      1160.8476      319.53252      8299.6072      1.0177122      4455.7805     -151.52063     -4.6924513     -8.1619169e-14 -7.5110159e-14 -151.52063     -3.1345866e-13
     42000   1402.3235      241.32189      1161.0016      294.39451      6516.1593      1.0177122      4455.7805     -149.95541     -4.6924513     -8.1754308e-14 -7.5112263e-14 -149.95541     -3.1373314e-13
     42250   1419.8822      253.78115      1166.101       309.59387      4820.3423      1.0177122      4455.7805     -151.33273     -4.6924513     -8.1545251e-14 -7.5111928e-14 -151.33273     -3.1331436e-13
     42500   1442.9333      271.00746      1171.9258      330.60868      4913.0792      1.0177122      4455.7805     -151.03425     -4.6924513     -8.1366574e-14 -7.5112907e-14 -151.03425     -3.1295896e-13
     42750   1421.6612      263.79366      1157.8675      321.80838      9756.2213      1.0177122      4455.7805     -154.50641     -4.6924513     -8.1862914e-14 -7.5111346e-14 -154.50641     -3.1394852e-13
     43000   1456.2129      275.49906      1180.7139      336.0881       3612.2298      1.0177122      4455.7805     -153.18609     -4.6924513     -8.1798229e-14 -7.5112002e-14 -153.18609     -3.1382046e-13
     43250   1409.9102      249.45509      1160.4551      304.31641      10450.871      1.0177122      4455.7805     -144.16261     -4.6924513     -8.2046955e-14 -7.5108075e-14 -144.16261     -3.1431006e-13
     43500   1417.8199      264.39732      1153.4226      322.5448       4433.1981      1.0177122      4455.7805     -153.1312      -4.6924513     -8.1425668e-14 -7.5112458e-14 -153.1312      -3.1307625e-13
     43750   1361.0013      237.64225      1123.359       289.90564      11002.057      1.0177122      4455.7805     -156.3915      -4.6924513     -8.1668915e-14 -7.5109774e-14 -156.3915      -3.1355738e-13
     44000   1422.7756      256.6911       1166.0845      313.1438       12989.42       1.0177122      4455.7805     -147.99168     -4.6924513     -8.1870814e-14 -7.5110142e-14 -147.99168     -3.1396191e-13
     44250   1413.2268      254.71394      1158.5129      310.73182      6308.4342      1.0177122      4455.7805     -151.27037     -4.6924513     -8.1634483e-14 -7.5110699e-14 -151.27037     -3.1349037e-13
     44500   1399.545       256.28457      1143.2604      312.64786      4000.3437      1.0177122      4455.7805     -151.98892     -4.6924513     -8.1576505e-14 -7.5112397e-14 -151.98892     -3.133778e-13 
     44750   1379.853       241.57085      1138.2821      294.69824      6874.7432      1.0177122      4455.7805     -147.73174     -4.6924513     -8.181799e-14  -7.5112864e-14 -147.73174     -3.1386171e-13
     45000   1380.1938      233.90725      1146.2866      285.34921      3821.2009      1.0177122      4455.7805     -147.49148     -4.6924513     -8.1461252e-14 -7.5111791e-14 -147.49148     -3.1314609e-13
     45250   1416.653       245.65162      1171.0014      299.67647      7436.445       1.0177122      4455.7805     -146.14603     -4.6924513     -8.1540215e-14 -7.511104e-14  -146.14603     -3.1330251e-13
     45500   1381.8824      236.70878      1145.1736      288.76687      5853.5428      1.0177122      4455.7805     -147.90617     -4.6924513     -8.1515572e-14 -7.5112255e-14 -147.90617     -3.1325565e-13
     45750   1419.4336      246.72501      1172.7086      300.98592      8118.3751      1.0177122      4455.7805     -154.99532     -4.6924513     -8.1896731e-14 -7.5109167e-14 -154.99532     -3.140118e-13 
     46000   1384.109       230.52245      1153.5865      281.22002      3160.4366      1.0177122      4455.7805     -146.71799     -4.6924513     -8.189302e-14  -7.5111214e-14 -146.71799     -3.1400847e-13
     46250   1411.2128      268.3088       1142.904       327.31651      5101.3331      1.0177122      4455.7805     -155.39496     -4.6924513     -8.1534024e-14 -7.5111489e-14 -155.39496     -3.1329103e-13
     46500   1415.0237      279.00665      1136.0171      340.36709      6240.2557      1.0177122      4455.7805     -153.42273     -4.6924513     -8.1743697e-14 -7.5111645e-14 -153.42273     -3.1371068e-13
     46750   1436.6738      275.19297      1161.4809      335.71469      7902.3783      1.0177122      4455.7805     -147.39467     -4.6924513     -8.1670429e-14 -7.5112692e-14 -147.39467     -3.1356624e-13
     47000   1402.375       243.66191      1158.7131      297.24917      8843.6232      1.0177122      4455.7805     -146.97515     -4.6924513     -8.2014448e-14 -7.5110907e-14 -146.97515     -3.1425071e-13
     47250   1406.5957      237.33431      1169.2614      289.52997      7612.0282      1.0177122      4455.7805     -153.42872     -4.6924513     -8.1756471e-14 -7.5110622e-14 -153.42872     -3.1373419e-13
     47500   1412.541       248.94253      1163.5985      303.69113      6402.2047      1.0177122      4455.7805     -146.1389      -4.6924513     -8.1520249e-14 -7.5112914e-14 -146.1389      -3.1326633e-13
     47750   1423.5811      255.1784       1168.4027      311.29842      10307.477      1.0177122      4455.7805     -150.86339     -4.6924513     -8.1804245e-14 -7.511058e-14  -150.86339     -3.1382965e-13
     48000   1390.7096      239.88522      1150.8244      292.64189      9507.8132      1.0177122      4455.7805     -150.79331     -4.6924513     -8.2000656e-14 -7.5109419e-14 -150.79331     -3.1422015e-13
     48250   1410.8577      252.38582      1158.4718      307.89168      6819.4694      1.0177122      4455.7805     -160.03984     -4.6924513     -8.154015e-14  -7.5112009e-14 -160.03984     -3.1330432e-13
     48500   1404.3077      245.43132      1158.8764      299.40771      6121.178       1.0177122      4455.7805     -153.53796     -4.6924513     -8.1751494e-14 -7.5110799e-14 -153.53796     -3.1372459e-13
     48750   1405.5041      253.33992      1152.1642      309.05562      5672.4219      1.0177122      4455.7805     -149.64211     -4.6924513     -8.1694974e-14 -7.5111e-14    -149.64211     -3.1361195e-13
     49000   1416.2189      245.84623      1170.3727      299.91387      6691.7871      1.0177122      4455.7805     -153.47757     -4.6924513     -8.1907629e-14 -7.5111738e-14 -153.47757     -3.1403873e-13
     49250   1422.2725      261.95035      1160.3222      319.55969      3076.5605      1.0177122      4455.7805     -147.1236      -4.6924513     -8.1695993e-14 -7.5113382e-14 -147.1236      -3.1361875e-13
     49500   1419.2887      263.106        1156.1827      320.96949      10624.506      1.0177122      4455.7805     -149.12738     -4.6924513     -8.171432e-14  -7.5108387e-14 -149.12738     -3.1364541e-13
     49750   1425.7554      269.85702      1155.8983      329.20523      8971.2138      1.0177122      4455.7805     -144.15259     -4.6924513     -8.1724265e-14 -7.5107418e-14 -144.15259     -3.1366337e-13
     50000   1404.3743      257.60168      1146.7726      314.25464      5965.7141      1.0177122      4455.7805     -149.29481     -4.6924513     -8.1658718e-14 -7.510993e-14  -149.29481     -3.135373e-13 
     50250   1414.6172      253.24545      1161.3718      308.94036      6631.781       1.0177122      4455.7805     -151.22247     -4.6924513     -8.1713523e-14 -7.5112871e-14 -151.22247     -3.1365279e-13
     50500   1400.5743      251.69798      1148.8763      307.05256      11276.82       1.0177122      4455.7805     -149.17741     -4.6924513     -8.1782902e-14 -7.5112214e-14 -149.17741     -3.1379023e-13
     50750   1426.097       263.81943      1162.2776      321.83982      5297.4105      1.0177122      4455.7805     -152.39521     -4.6924513     -8.1649638e-14 -7.5111117e-14 -152.39521     -3.1352151e-13
     51000   1422.765       276.35091      1146.4141      337.12729      7019.0296      1.0177122      4455.7805     -148.48211     -4.6924513     -8.1537965e-14 -7.5112069e-14 -148.48211     -3.1330007e-13
     51250   1400.9448      243.49299      1157.4518      297.0431       8043.0919      1.0177122      4455.7805     -156.37924     -4.6924513     -8.1438821e-14 -7.5111486e-14 -156.37924     -3.1310061e-13
     51500   1377.7572      228.57603      1149.1812      278.84554      7494.0598      1.0177122      4455.7805     -149.15697     -4.6924513     -8.1755524e-14 -7.5111774e-14 -149.15697     -3.137346e-13 
     51750   1413.2462      255.05929      1158.1869      311.15312      6543.1833      1.0177122      4455.7805     -147.45544     -4.6924513     -8.1705275e-14 -7.5112148e-14 -147.45544     -3.1363485e-13
     52000   1420.7731      257.22823      1163.5449      313.79906      3675.2029      1.0177122      4455.7805     -153.13474     -4.6924513     -8.1529526e-14 -7.5112489e-14 -153.13474     -3.1328403e-13
     52250   1407.4777      255.35368      1152.1241      311.51225      9344.383       1.0177122      4455.7805     -157.01976     -4.6924513     -8.1992158e-14 -7.5111504e-14 -157.01976     -3.1420732e-13
     52500   1426.343       243.68945      1182.6536      297.28276      6289.0561      1.0177122      4455.7805     -155.61199     -4.6924513     -8.1536692e-14 -7.5113066e-14 -155.61199     -3.1329952e-13
     52750   1413.1266      260.52648      1152.6001      317.82268      5993.2549      1.0177122      4455.7805     -154.21009     -4.6924513     -8.1579294e-14 -7.5111481e-14 -154.21009     -3.1338155e-13
     53000   1380.6485      235.72208      1144.9265      287.56318      7861.7216      1.0177122      4455.7805     -154.10911     -4.6924513     -8.1737997e-14 -7.5113193e-14 -154.10911     -3.1370238e-13
     53250   1383.0495      238.92652      1144.123       291.47235      5611.905       1.0177122      4455.7805     -142.22381     -4.6924513     -8.2060358e-14 -7.5110849e-14 -142.22381     -3.1434241e-13
     53500   1390.7967      241.67921      1149.1175      294.83043      5269.0836      1.0177122      4455.7805     -153.45197     -4.6924513     -8.1649599e-14 -7.5110411e-14 -153.45197     -3.1352002e-13
     53750   1417.578       259.51384      1158.0642      316.58733      4697.4478      1.0177122      4455.7805     -155.89982     -4.6924513     -8.1593051e-14 -7.5112921e-14 -155.89982     -3.1341194e-13
     54000   1408.2154      238.7354       1169.48        291.23919      3429.2141      1.0177122      4455.7805     -159.8085      -4.6924513     -8.135293e-14  -7.5112496e-14 -159.8085      -3.1293085e-13
     54250   1410.1051      253.76797      1156.3371      309.5778       3555.1418      1.0177122      4455.7805     -152.23933     -4.6924513     -8.1672134e-14 -7.5109596e-14 -152.23933     -3.1356346e-13
     54500   1393.9936      245.00415      1148.9895      298.8866       3431.064       1.0177122      4455.7805     -153.55871     -4.6924513     -8.1593153e-14 -7.5109565e-14 -153.55871     -3.1340543e-13
     54750   1434.2342      256.99919      1177.235       313.51964      10046.896      1.0177122      4455.7805     -152.26232     -4.6924513     -8.1814068e-14 -7.5108096e-14 -152.26232     -3.1384433e-13
     55000   1402.519       242.04196      1160.477       295.27295      12291.064      1.0177122      4455.7805     -151.69996     -4.6924513     -8.1829897e-14 -7.5109521e-14 -151.69996     -3.1387884e-13
     55250   1440.243       273.63778      1166.6053      333.81747      8016.4296      1.0177122      4455.7805     -153.78789     -4.6924513     -8.2059816e-14 -7.5110575e-14 -153.78789     -3.1434078e-13
     55500   1400.0184      247.31028      1152.7081      301.69991      1520.7787      1.0177122      4455.7805     -159.86352     -4.6924513     -8.1562511e-14 -7.5110235e-14 -159.86352     -3.1334549e-13
     55750   1416.4677      274.42493      1142.0428      334.77773      4142.1195      1.0177122      4455.7805     -158.4319      -4.6924513     -8.1305719e-14 -7.5111232e-14 -158.4319      -3.128339e-13 
     56000   1426.3748      264.23703      1162.1378      322.34926      7450.89        1.0177122      4455.7805     -149.77599     -4.6924513     -8.1578949e-14 -7.5110679e-14 -149.77599     -3.1337926e-13
     56250   1372.3927      229.0017       1143.391       279.36482      11314.349      1.0177122      4455.7805     -159.82845     -4.6924513     -8.173601e-14  -7.5109799e-14 -159.82845     -3.1369162e-13
     56500   1412.2872      247.07551      1165.2117      301.4135       1814.4304      1.0177122      4455.7805     -149.65084     -4.6924513     -8.1430138e-14 -7.5110342e-14 -149.65084     -3.1308096e-13
     56750   1378.6062      224.5395       1154.0667      273.92127      11257.601      1.0177122      4455.7805     -146.22991     -4.6924513     -8.1511252e-14 -7.5110929e-14 -146.22991     -3.1324436e-13
     57000   1403.8686      251.29607      1152.5725      306.56226      5999.923       1.0177122      4455.7805     -153.58586     -4.6924513     -8.1612325e-14 -7.5111751e-14 -153.58586     -3.1344815e-13
     57250   1407.0951      253.88066      1153.2145      309.71528      5044.0548      1.0177122      4455.7805     -153.20159     -4.6924513     -8.1688903e-14 -7.5112478e-14 -153.20159     -3.1360276e-13
     57500   1420.85        249.24128      1171.6087      304.05558      9461.4561      1.0177122      4455.7805     -148.6448      -4.6924513     -8.1566937e-14 -7.5111621e-14 -148.6448      -3.1335712e-13
     57750   1397.6277      227.03816      1170.5895      276.96944      3903.619       1.0177122      4455.7805     -151.08802     -4.6924513     -8.1620875e-14 -7.5112337e-14 -151.08802     -3.1346642e-13
     58000   1370.3995      234.14982      1136.2497      285.64514      4407.8943      1.0177122      4455.7805     -148.39609     -4.6924513     -8.1501874e-14 -7.5108996e-14 -148.39609     -3.1322174e-13
     58250   1354.0979      210.09922      1143.9987      256.30522      7109.0026      1.0177122      4455.7805     -158.61623     -4.6924513     -8.1726616e-14 -7.5109329e-14 -158.61623     -3.1367189e-13
     58500   1393.5147      247.80891      1145.7058      302.30819      5898.8811      1.0177122      4455.7805     -150.94174     -4.6924513     -8.1421077e-14 -7.5112592e-14 -150.94174     -3.1306734e-13
     58750   1429.2714      262.35626      1166.9151      320.05487      10297.157      1.0177122      4455.7805     -147.13023     -4.6924513     -8.181523e-14  -7.5112154e-14 -147.13023     -3.1385477e-13
     59000   1410.3634      250.40823      1159.9552      305.47917      4009.2563      1.0177122      4455.7805     -154.1454      -4.6924513     -8.1692485e-14 -7.5112237e-14 -154.1454      -3.1360944e-13
     59250   1388.6919      238.12         1150.5719      290.48846      7471.6334      1.0177122      4455.7805     -147.2866      -4.6924513     -8.1645791e-14 -7.5112057e-14 -147.2866      -3.135157e-13 
     59500   1401.5119      259.46769      1142.0442      316.53103      7503.3238      1.0177122      4455.7805     -152.90494     -4.6924513     -8.1827024e-14 -7.5109167e-14 -152.90494     -3.1387238e-13
     59750   1397.8206      238.85221      1158.9683      291.3817       7630.0979      1.0177122      4455.7805     -161.36555     -4.6924513     -8.1659922e-14 -7.5112749e-14 -161.36555     -3.1354534e-13
     60000   1387.5721      237.01863      1150.5535      289.14487      6951.3364      1.0177122      4455.7805     -148.89938     -4.6924513     -8.1624598e-14 -7.5109189e-14 -148.89938     -3.1346757e-13
     60250   1430.0777      262.02609      1168.0516      319.65208      9304.4433      1.0177122      4455.7805     -144.89403     -4.6924513     -8.182834e-14  -7.5109964e-14 -144.89403     -3.1387661e-13
     60500   1415.938       262.11971      1153.8183      319.76629      10935.841      1.0177122      4455.7805     -151.04993     -4.6924513     -8.1965464e-14 -7.5111712e-14 -151.04993     -3.1415435e-13
     60750   1406.1282      258.26727      1147.8609      315.0666       6044.7512      1.0177122      4455.7805     -147.42065     -4.6924513     -8.2000456e-14 -7.511061e-14  -147.42065     -3.1422213e-13
     61000   1423.7113      248.19134      1175.5199      302.77473      4315.925       1.0177122      4455.7805     -158.07449     -4.6924513     -8.1866588e-14 -7.5110557e-14 -158.07449     -3.1395429e-13
     61250   1392.954       245.79439      1147.1597      299.85063      4661.7588      1.0177122      4455.7805     -150.1261      -4.6924513     -8.1891706e-14 -7.511338e-14  -150.1261      -3.1401017e-13
     61500   1401.0972      253.38709      1147.7101      309.11316      9576.5513      1.0177122      4455.7805     -148.95737     -4.6924513     -8.2118817e-14 -7.5111911e-14 -148.95737     -3.1446146e-13
     61750   1407.5031      257.31329      1150.1898      313.90282      2936.8856      1.0177122      4455.7805     -151.6237      -4.6924513     -8.1618585e-14 -7.5110672e-14 -151.6237      -3.1345851e-13
     62000   1416.2262      265.55411      1150.6721      323.956        5087.8379      1.0177122      4455.7805     -154.9801      -4.6924513     -8.1461504e-14 -7.51067e-14   -154.9801      -3.1313641e-13
     62250   1437.7175      262.168        1175.5495      319.82521      6332.1746      1.0177122      4455.7805     -158.76058     -4.6924513     -8.1537019e-14 -7.5110007e-14 -158.76058     -3.1329405e-13
     62500   1415.5893      253.25439      1162.3349      308.95127      8802.7095      1.0177122      4455.7805     -152.78167     -4.6924513     -8.2271891e-14 -7.5109595e-14 -152.78167     -3.1476297e-13
     62750   1431.5328      258.44855      1173.0843      315.28775      2768.788       1.0177122      4455.7805     -145.8867      -4.6924513     -8.178951e-14  -7.5112378e-14 -145.8867      -3.1380378e-13
     63000   1405.3631      252.54976      1152.8134      308.09168      8394.1371      1.0177122      4455.7805     -150.04557     -4.6924513     -8.1603229e-14 -7.5112056e-14 -150.04557     -3.1343057e-13
     63250   1402.1643      237.89048      1164.2739      290.20846      7272.5087      1.0177122      4455.7805     -146.82027     -4.6924513     -8.1570532e-14 -7.5109364e-14 -146.82027     -3.1335979e-13
     63500   1402.1719      242.76668      1159.4053      296.15705      4429.6788      1.0177122      4455.7805     -154.93346     -4.6924513     -8.1607938e-14 -7.5111205e-14 -154.93346     -3.1343829e-13
     63750   1408.7387      245.37962      1163.3591      299.34464      7441.9674      1.0177122      4455.7805     -155.65484     -4.6924513     -8.1760876e-14 -7.5109611e-14 -155.65484     -3.1374097e-13
     64000   1382.3415      248.87212      1133.4694      303.60523      5652.6359      1.0177122      4455.7805     -152.72537     -4.6924513     -8.1558068e-14 -7.5111044e-14 -152.72537     -3.1333822e-13
     64250   1377.4802      235.87988      1141.6003      287.75568      4488.2998      1.0177122      4455.7805     -157.79462     -4.6924513     -8.1517582e-14 -7.5110751e-14 -157.79462     -3.1325667e-13
     64500   1368.2651      228.68067      1139.5844      278.97319      4580.8549      1.0177122      4455.7805     -147.73412     -4.6924513     -8.1806919e-14 -7.5111106e-14 -147.73412     -3.1383605e-13
     64750   1369.1653      239.04332      1130.1219      291.61484      4505.8747      1.0177122      4455.7805     -154.05756     -4.6924513     -8.1846928e-14 -7.5109604e-14 -154.05756     -3.1391306e-13
     65000   1406.4208      249.24253      1157.1782      304.0571       9276.2202      1.0177122      4455.7805     -150.76097     -4.6924513     -8.1738559e-14 -7.5110737e-14 -150.76097     -3.1369859e-13
     65250   1388.8939      260.84472      1128.0491      318.21091      4420.9673      1.0177122      4455.7805     -149.4197      -4.6924513     -8.1622024e-14 -7.5110739e-14 -149.4197      -3.1346553e-13
     65500   1402.8365      248.14238      1154.6941      302.715        11797.914      1.0177122      4455.7805     -150.90063     -4.6924513     -8.1755329e-14 -7.5110725e-14 -150.90063     -3.1373211e-13
     65750   1401.0961      245.44658      1155.6495      299.42633      3777.3586      1.0177122      4455.7805     -151.51599     -4.6924513     -8.1908861e-14 -7.510963e-14  -151.51599     -3.1403698e-13
     66000   1390.8036      246.07706      1144.7265      300.19546      3867.4605      1.0177122      4455.7805     -147.07164     -4.6924513     -8.1754499e-14 -7.5110403e-14 -147.07164     -3.137298e-13 
     66250   1402.3074      244.02963      1158.2778      297.69776      4845.9627      1.0177122      4455.7805     -147.44598     -4.6924513     -8.1743165e-14 -7.5110051e-14 -147.44598     -3.1370643e-13
     66500   1422.4329      263.96731      1158.4656      322.02023      9661.2036      1.0177122      4455.7805     -149.50128     -4.6924513     -8.1855676e-14 -7.5111599e-14 -149.50128     -3.1393455e-13
     66750   1399.8494      236.69365      1163.1557      288.74842      3305.6815      1.0177122      4455.7805     -150.99481     -4.6924513     -8.1835022e-14 -7.5109658e-14 -150.99481     -3.1388936e-13
     67000   1394.8434      244.33032      1150.5131      298.06458      9796.6253      1.0177122      4455.7805     -152.90545     -4.6924513     -8.1964393e-14 -7.5113019e-14 -152.90545     -3.1415483e-13
     67250   1381.3738      238.8846       1142.4892      291.42121      3987.4131      1.0177122      4455.7805     -148.3417      -4.6924513     -8.1790868e-14 -7.5110979e-14 -148.3417      -3.1380369e-13
     67500   1405.8801      251.33056      1154.5495      306.60435      10057.689      1.0177122      4455.7805     -153.65875     -4.6924513     -8.1628568e-14 -7.5110173e-14 -153.65875     -3.1347748e-13
     67750   1384.1572      232.07668      1152.0805      283.11606      576.77395      1.0177122      4455.7805     -150.72893     -4.6924513     -8.1683012e-14 -7.5110698e-14 -150.72893     -3.1358742e-13
     68000   1357.4046      227.72681      1129.6778      277.80955      8822.7922      1.0177122      4455.7805     -159.12716     -4.6924513     -8.1788627e-14 -7.5110657e-14 -159.12716     -3.1379857e-13
     68250   1388.6363      237.54167      1151.0946      289.78293      5995.2422      1.0177122      4455.7805     -147.88263     -4.6924513     -8.174392e-14  -7.5110452e-14 -147.88263     -3.1370874e-13
     68500   1401.0938      247.55203      1153.5418      301.99482      9281.4695      1.0177122      4455.7805     -154.20814     -4.6924513     -8.1693695e-14 -7.5108493e-14 -154.20814     -3.1360438e-13
     68750   1367.5606      227.32012      1140.2405      277.31341      6169.7254      1.0177122      4455.7805     -148.39767     -4.6924513     -8.1572757e-14 -7.5111747e-14 -148.39767     -3.1336901e-13
     69000   1424.8046      268.55763      1156.2469      327.62007      869.00459      1.0177122      4455.7805     -151.05973     -4.6924513     -8.1794889e-14 -7.5112162e-14 -151.05973     -3.138141e-13 
     69250   1380.5257      232.96394      1147.5618      284.19845      3586.5633      1.0177122      4455.7805     -146.81157     -4.6924513     -8.1954305e-14 -7.5109799e-14 -146.81157     -3.1412821e-13
     69500   1420.6009      250.96132      1169.6396      306.1539       8325.5213      1.0177122      4455.7805     -150.73756     -4.6924513     -8.1516611e-14 -7.5112523e-14 -150.73756     -3.1325827e-13
     69750   1416.2883      252.10298      1164.1853      307.54664      15841.806      1.0177122      4455.7805     -143.58144     -4.6924513     -8.2010529e-14 -7.511256e-14  -143.58144     -3.1424618e-13
     70000   1387.2645      248.78443      1138.48        303.49826      6888.2654      1.0177122      4455.7805     -158.98813     -4.6924513     -8.1648672e-14 -7.510613e-14  -158.98813     -3.135096e-13 
     70250   1382.4828      233.34361      1149.1391      284.66163      6300.603       1.0177122      4455.7805     -150.01392     -4.6924513     -8.1639451e-14 -7.5107979e-14 -150.01392     -3.1349486e-13
     70500   1413.9391      253.71474      1160.2243      309.51286      8153.5164      1.0177122      4455.7805     -143.67276     -4.6924513     -8.1840549e-14 -7.5104753e-14 -143.67276     -3.1389061e-13
     70750   1408.4838      253.55102      1154.9328      309.31313      7718.3849      1.0177122      4455.7805     -157.79271     -4.6924513     -8.161892e-14  -7.5110695e-14 -157.79271     -3.1345923e-13
     71000   1395.0584      247.88626      1147.1722      302.40256      2392.3598      1.0177122      4455.7805     -150.18367     -4.6924513     -8.1257377e-14 -7.510998e-14  -150.18367     -3.1273471e-13
     71250   1381.8611      243.64881      1138.2123      297.23318      10222.47       1.0177122      4455.7805     -148.74566     -4.6924513     -8.1799801e-14 -7.5108205e-14 -148.74566     -3.1381601e-13
     71500   1401.6438      262.51899      1139.1248      320.25338      6808.5687      1.0177122      4455.7805     -152.05644     -4.6924513     -8.1797088e-14 -7.5112975e-14 -152.05644     -3.1382013e-13
     71750   1408.3342      244.69304      1163.6412      298.50707      4871.0306      1.0177122      4455.7805     -151.38409     -4.6924513     -8.1697022e-14 -7.5113293e-14 -151.38409     -3.1362063e-13
     72000   1404.9324      253.32872      1151.6037      309.04195      7543.0881      1.0177122      4455.7805     -155.82536     -4.6924513     -8.1787911e-14 -7.5112283e-14 -155.82536     -3.1380039e-13
     72250   1406.8044      239.2317       1167.5727      291.84464      5199.5122      1.0177122      4455.7805     -148.76007     -4.6924513     -8.1663055e-14 -7.5112398e-14 -148.76007     -3.1355091e-13
     72500   1401.9071      252.91776      1148.9894      308.54061      6520.7444      1.0177122      4455.7805     -151.4697      -4.6924513     -8.1590381e-14 -7.5112061e-14 -151.4697      -3.1340488e-13
     72750   1397.7368      252.23721      1145.4996      307.71038      9636.5743      1.0177122      4455.7805     -150.2715      -4.6924513     -8.1763465e-14 -7.5109912e-14 -150.2715      -3.1374675e-13
     73000   1421.7446      264.86229      1156.8823      323.11204      8573.6985      1.0177122      4455.7805     -154.02938     -4.6924513     -8.1867515e-14 -7.5113531e-14 -154.02938     -3.1396209e-13
     73250   1397.9992      237.45406      1160.5451      289.67606      7350.5334      1.0177122      4455.7805     -143.92112     -4.6924513     -8.2067869e-14 -7.5112998e-14 -143.92112     -3.1436173e-13
     73500   1411.4572      252.77963      1158.6775      308.3721       5443.944       1.0177122      4455.7805     -156.72812     -4.6924513     -8.1625393e-14 -7.5107492e-14 -156.72812     -3.1346577e-13
     73750   1410.7469      264.92892      1145.8179      323.19332      4411.5709      1.0177122      4455.7805     -154.20553     -4.6924513     -8.1527037e-14 -7.5110276e-14 -154.20553     -3.1327463e-13
     74000   1393.6665      242.40951      1151.257       295.72134      10471.14       1.0177122      4455.7805     -158.86344     -4.6924513     -8.1484999e-14 -7.5111928e-14 -158.86344     -3.1319385e-13
     74250   1395.9918      235.97882      1160.013       287.87638      2889.29        1.0177122      4455.7805     -144.97146     -4.6924513     -8.1501956e-14 -7.5111903e-14 -144.97146     -3.1322772e-13
     74500   1388.3932      246.0993       1142.2939      300.2226       6800.6717      1.0177122      4455.7805     -147.96062     -4.6924513     -8.1602351e-14 -7.5109353e-14 -147.96062     -3.1342341e-13
     74750   1418.7058      264.12008      1154.5857      322.20659      8141.8436      1.0177122      4455.7805     -144.89372     -4.6924513     -8.1877314e-14 -7.5110535e-14 -144.89372     -3.139757e-13 
     75000   1380.3766      219.26863      1161.1079      267.49121      3259.0509      1.0177122      4455.7805     -150.11772     -4.6924513     -8.1493e-14    -7.511062e-14  -150.11772     -3.1320724e-13
     75250   1410.1777      249.63126      1160.5465      304.53132      10370.056      1.0177122      4455.7805     -152.5148      -4.6924513     -8.2120111e-14 -7.5111216e-14 -152.5148      -3.1446266e-13
     75500   1398.9762      252.36947      1146.6067      307.87173      6258.8288      1.0177122      4455.7805     -157.95965     -4.6924513     -8.1544825e-14 -7.5112376e-14 -157.95965     -3.133144e-13 
     75750   1392.7667      240.9651       1151.8016      293.95926      7534.9646      1.0177122      4455.7805     -154.24681     -4.6924513     -8.1723282e-14 -7.5110746e-14 -154.24681     -3.1366806e-13
     76000   1427.8471      266.81942      1161.0277      325.49958      9325.1246      1.0177122      4455.7805     -149.01366     -4.6924513     -8.158299e-14  -7.5112774e-14 -149.01366     -3.1339153e-13
     76250   1423.0823      244.6321       1178.4502      298.43272      206.91807      1.0177122      4455.7805     -154.5348      -4.6924513     -8.1694174e-14 -7.51066e-14   -154.5348      -3.1360155e-13
     76500   1415.0247      262.05509      1152.9696      319.68746      6254.7448      1.0177122      4455.7805     -155.96366     -4.6924513     -8.1738963e-14 -7.5110862e-14 -155.96366     -3.1369965e-13
     76750   1416.0809      260.95248      1155.1284      318.34236      6107.21        1.0177122      4455.7805     -153.96983     -4.6924513     -8.1661923e-14 -7.5112376e-14 -153.96983     -3.135486e-13 
     77000   1423.0055      264.40597      1158.5995      322.55535      5479.7939      1.0177122      4455.7805     -158.40627     -4.6924513     -8.1722498e-14 -7.5110352e-14 -158.40627     -3.136657e-13 
[...]
    477750   1398.4101      243.26979      1155.1403      296.77081      11955.917      1.0177122      4455.7805     -149.88382     -4.6924513     -8.1764897e-14 -7.5112283e-14 -149.88382     -3.1375436e-13
    478000   1433.1271      270.99708      1162.13        330.59601      10905.882      1.0177122      4455.7805     -146.66015     -4.6924513     -8.1586959e-14 -7.5108925e-14 -146.66015     -3.1339177e-13
    478250   1403.9678      258.00647      1145.9613      314.74846      7154.2034      1.0177122      4455.7805     -153.39447     -4.6924513     -8.1629595e-14 -7.5109621e-14 -153.39447     -3.1347843e-13
    478500   1421.3902      260.62601      1160.7642      317.94409      9126.1798      1.0177122      4455.7805     -153.06803     -4.6924513     -8.1716983e-14 -7.5113772e-14 -153.06803     -3.1366151e-13
    478750   1388.6675      242.5857       1146.0818      295.93627      8200.4765      1.0177122      4455.7805     -147.65787     -4.6924513     -8.1625968e-14 -7.510727e-14  -147.65787     -3.1346648e-13
    479000   1433.7173      282.25857      1151.4587      344.33419      6945.2975      1.0177122      4455.7805     -156.85376     -4.6924513     -8.1474551e-14 -7.5108847e-14 -156.85376     -3.131668e-13 
    479250   1405.7621      250.75122      1155.0109      305.89759      9455.5116      1.0177122      4455.7805     -150.0582      -4.6924513     -8.1878665e-14 -7.5113895e-14 -150.0582      -3.1398512e-13
    479500   1395.4502      231.05482      1164.3954      281.86947      7564.7555      1.0177122      4455.7805     -148.80209     -4.6924513     -8.204146e-14  -7.5110963e-14 -148.80209     -3.1430485e-13
    479750   1437.9933      276.82698      1161.1663      337.70805      1158.7652      1.0177122      4455.7805     -150.01419     -4.6924513     -8.1572878e-14 -7.5111783e-14 -150.01419     -3.1336932e-13
    480000   1397.1554      237.5797       1159.5757      289.82933      10867.287      1.0177122      4455.7805     -151.13653     -4.6924513     -8.1709917e-14 -7.511037e-14  -151.13653     -3.1364057e-13
    480250   1441.8533      261.06955      1180.7837      318.48518      5987.4872      1.0177122      4455.7805     -158.94953     -4.6924513     -8.1622108e-14 -7.5112942e-14 -158.94953     -3.134701e-13 
    480500   1386.68        247.90473      1138.7753      302.42509      7558.8283      1.0177122      4455.7805     -146.76929     -4.6924513     -8.1832813e-14 -7.5110617e-14 -146.76929     -3.1388686e-13
    480750   1402.7553      241.64308      1161.1122      294.78635      109.45523      1.0177122      4455.7805     -152.50724     -4.6924513     -8.1733672e-14 -7.5110112e-14 -152.50724     -3.1368757e-13
    481000   1393.8096      244.7969       1149.0127      298.63377      7049.7392      1.0177122      4455.7805     -153.32364     -4.6924513     -8.1483046e-14 -7.5111241e-14 -153.32364     -3.1318857e-13
    481250   1382.5939      228.93958      1153.6543      279.28903      5600.9209      1.0177122      4455.7805     -143.41257     -4.6924513     -8.1732128e-14 -7.5108794e-14 -143.41257     -3.1368184e-13
    481500   1405.6701      261.51744      1144.1526      319.03157      8834.5573      1.0177122      4455.7805     -151.49593     -4.6924513     -8.1767154e-14 -7.5113543e-14 -151.49593     -3.137614e-13 
    481750   1435.2696      273.52306      1161.7466      333.67752      6413.9209      1.0177122      4455.7805     -148.10853     -4.6924513     -8.1599938e-14 -7.5111694e-14 -148.10853     -3.1342326e-13
    482000   1409.5023      242.10287      1167.3995      295.34726      5805.7637      1.0177122      4455.7805     -155.51934     -4.6924513     -8.1458842e-14 -7.5111865e-14 -155.51934     -3.1314141e-13
    482250   1424.742       245.72124      1179.0208      299.7614       4027.3099      1.0177122      4455.7805     -151.00496     -4.6924513     -8.1605256e-14 -7.5109544e-14 -151.00496     -3.134296e-13 
    482500   1429.1121      248.55511      1180.5569      303.21851      4664.002       1.0177122      4455.7805     -149.59762     -4.6924513     -8.1662911e-14 -7.5110825e-14 -149.59762     -3.1354747e-13
    482750   1378.2484      221.75586      1156.4925      270.52543      4265.0025      1.0177122      4455.7805     -143.87371     -4.6924513     -8.1806477e-14 -7.5112012e-14 -143.87371     -3.1383698e-13
    483000   1416.3732      268.8627       1147.5105      327.99224      7596.0233      1.0177122      4455.7805     -142.42807     -4.6924513     -8.1912864e-14 -7.5108164e-14 -142.42807     -3.1404205e-13
    483250   1429.6647      279.29712      1150.3676      340.72143      1935.9463      1.0177122      4455.7805     -144.42031     -4.6924513     -8.1727474e-14 -7.5111411e-14 -144.42031     -3.1367777e-13
    483500   1400.9759      251.00027      1149.9756      306.20141      8505.4206      1.0177122      4455.7805     -149.03746     -4.6924513     -8.1664139e-14 -7.511118e-14  -149.03746     -3.1355064e-13
    483750   1406.5362      240.14693      1166.3893      292.96116      12622.688      1.0177122      4455.7805     -150.53365     -4.6924513     -8.186067e-14  -7.5111932e-14 -150.53365     -3.139452e-13 
    484000   1426.4378      266.40237      1160.0354      324.99081      6567.9472      1.0177122      4455.7805     -152.15155     -4.6924513     -8.1352682e-14 -7.5111018e-14 -152.15155     -3.129274e-13 
    484250   1384.0647      235.57967      1148.4851      287.38945      4400.261       1.0177122      4455.7805     -149.87209     -4.6924513     -8.1779451e-14 -7.5111604e-14 -149.87209     -3.1378211e-13
    484500   1413.9327      252.52987      1161.4028      308.06741      6341.1654      1.0177122      4455.7805     -151.70904     -4.6924513     -8.1655873e-14 -7.5112118e-14 -151.70904     -3.1353598e-13
    484750   1421.3935      250.04143      1171.352       305.0317       5043.8983      1.0177122      4455.7805     -151.36643     -4.6924513     -8.1639688e-14 -7.5111475e-14 -151.36643     -3.1350233e-13
    485000   1418.7075      261.27709      1157.4305      318.73837      5231.6217      1.0177122      4455.7805     -155.96199     -4.6924513     -8.1485127e-14 -7.5109226e-14 -155.96199     -3.131887e-13 
    485250   1409.2217      249.58604      1159.6356      304.47616      7843.5985      1.0177122      4455.7805     -151.37023     -4.6924513     -8.173312e-14  -7.510894e-14  -151.37023     -3.1368412e-13
    485500   1367.7871      231.42544      1136.3617      282.32159      5627.5788      1.0177122      4455.7805     -152.72103     -4.6924513     -8.1595952e-14 -7.5110633e-14 -152.72103     -3.1341317e-13
    485750   1370.948       222.20519      1148.7428      271.07358      6444.8956      1.0177122      4455.7805     -154.3922      -4.6924513     -8.1754972e-14 -7.5107325e-14 -154.3922      -3.1372459e-13
    486000   1421.1385      272.45349      1148.685       332.37272      4083.6045      1.0177122      4455.7805     -143.82461     -4.6924513     -8.1789487e-14 -7.5111869e-14 -143.82461     -3.1380271e-13
    486250   1387.158       234.14132      1153.0167      285.63477      8176.696       1.0177122      4455.7805     -154.30432     -4.6924513     -8.1673789e-14 -7.5110381e-14 -154.30432     -3.1356834e-13
    486500   1425.4709      258.57265      1166.8983      315.43915      7479.794       1.0177122      4455.7805     -156.02411     -4.6924513     -8.1566202e-14 -7.5108636e-14 -156.02411     -3.1334968e-13
    486750   1428.4572      265.01925      1163.438       323.30351      1547.6398      1.0177122      4455.7805     -158.63878     -4.6924513     -8.1409046e-14 -7.5113265e-14 -158.63878     -3.1304462e-13
    487000   1414.9634      257.01491      1157.9485      313.53882      6879.4563      1.0177122      4455.7805     -150.97557     -4.6924513     -8.1748071e-14 -7.511168e-14  -150.97557     -3.137195e-13 
    487250   1433.6825      260.376        1173.3065      317.6391       4524.297       1.0177122      4455.7805     -148.64254     -4.6924513     -8.1605157e-14 -7.5110604e-14 -148.64254     -3.1343152e-13
    487500   1430.5874      267.45225      1163.1352      326.27159      6563.7364      1.0177122      4455.7805     -153.57119     -4.6924513     -8.14454e-14   -7.5107181e-14 -153.57119     -3.1310516e-13
    487750   1416.878       264.69759      1152.1804      322.91111      389.88743      1.0177122      4455.7805     -157.15478     -4.6924513     -8.1755806e-14 -7.5108396e-14 -157.15478     -3.137284e-13 
    488000   1432.2258      274.68626      1157.5395      335.09654      4119.7622      1.0177122      4455.7805     -150.43583     -4.6924513     -8.1802277e-14 -7.5108985e-14 -150.43583     -3.1382252e-13
    488250   1398.9236      247.97343      1150.9502      302.50889      5713.9832      1.0177122      4455.7805     -154.59002     -4.6924513     -8.155634e-14  -7.5109976e-14 -154.59002     -3.1333263e-13
    488500   1415.1729      238.1242       1177.0487      290.49358      5246.2942      1.0177122      4455.7805     -155.49278     -4.6924513     -8.1752119e-14 -7.5112124e-14 -155.49278     -3.1372849e-13
    488750   1403.6514      249.21106      1154.4404      304.01871      7248.4227      1.0177122      4455.7805     -148.86643     -4.6924513     -8.1688005e-14 -7.5110971e-14 -148.86643     -3.1359795e-13
    489000   1403.5255      257.32405      1146.2014      313.91595      11555.559      1.0177122      4455.7805     -152.6174      -4.6924513     -8.1844257e-14 -7.5112776e-14 -152.6174      -3.1391406e-13
    489250   1394.0826      243.98236      1150.1003      297.6401       9977.9388      1.0177122      4455.7805     -159.54094     -4.6924513     -8.164224e-14  -7.5112985e-14 -159.54094     -3.1351045e-13
    489500   1407.8683      252.72243      1155.1459      308.30232      7068.5184      1.0177122      4455.7805     -148.59945     -4.6924513     -8.1852397e-14 -7.5110446e-14 -148.59945     -3.1392568e-13
    489750   1404.609       250.21539      1154.3936      305.24392      6758.4737      1.0177122      4455.7805     -158.62103     -4.6924513     -8.1873893e-14 -7.5111288e-14 -158.62103     -3.1397036e-13
    490000   1401.855       246.67475      1155.1803      300.9246       9329.2489      1.0177122      4455.7805     -149.59149     -4.6924513     -8.1977381e-14 -7.5112997e-14 -149.59149     -3.1418076e-13
    490250   1433.783       267.38772      1166.3952      326.19286      8011.512       1.0177122      4455.7805     -150.35046     -4.6924513     -8.1928921e-14 -7.51105e-14   -150.35046     -3.1407884e-13
    490500   1387.262       229.22258      1158.0394      279.63427      9226.8456      1.0177122      4455.7805     -145.68494     -4.6924513     -8.1784985e-14 -7.5109703e-14 -145.68494     -3.1378938e-13
    490750   1403.499       248.89609      1154.6029      303.63447      9725.9996      1.0177122      4455.7805     -155.29109     -4.6924513     -8.1439345e-14 -7.5112318e-14 -155.29109     -3.1310333e-13
    491000   1392.9155      247.84092      1145.0746      302.34725      6834.123       1.0177122      4455.7805     -145.7029      -4.6924513     -8.1672902e-14 -7.5111308e-14 -145.7029      -3.1356842e-13
    491250   1406.5399      249.03015      1157.5097      303.79802      9517.9352      1.0177122      4455.7805     -151.01861     -4.6924513     -8.1478256e-14 -7.5109203e-14 -151.01861     -3.1317492e-13
    491500   1413.9614      246.56265      1167.3987      300.78785      4238.4796      1.0177122      4455.7805     -151.61224     -4.6924513     -8.174333e-14  -7.5108586e-14 -151.61224     -3.1370383e-13
    491750   1397.0159      228.22011      1168.7958      278.41134      12237.752      1.0177122      4455.7805     -151.76874     -4.6924513     -8.1754282e-14 -7.511022e-14  -151.76874     -3.13729e-13  
    492000   1377.6166      247.96218      1129.6545      302.49518      5287.0905      1.0177122      4455.7805     -153.29325     -4.6924513     -8.1562217e-14 -7.5113059e-14 -153.29325     -3.1335055e-13
    492250   1408.9027      260.71103      1148.1916      318.04781      9903.0387      1.0177122      4455.7805     -150.0618      -4.6924513     -8.1702536e-14 -7.5111913e-14 -150.0618      -3.136289e-13 
    492500   1411.8621      253.49374      1158.3683      309.24326      7394.5074      1.0177122      4455.7805     -148.3933      -4.6924513     -8.178343e-14  -7.5107627e-14 -148.3933      -3.1378211e-13
    492750   1424.168       257.63265      1166.5354      314.29242      11107.127      1.0177122      4455.7805     -154.20241     -4.6924513     -8.2010226e-14 -7.5112727e-14 -154.20241     -3.1424591e-13
    493000   1432.443       264.6747       1167.7683      322.88318      8954.5596      1.0177122      4455.7805     -153.047       -4.6924513     -8.1692483e-14 -7.5110268e-14 -153.047       -3.136055e-13 
    493250   1394.6529      245.22348      1149.4294      299.15417      6520.2608      1.0177122      4455.7805     -148.63071     -4.6924513     -8.1693382e-14 -7.5111431e-14 -148.63071     -3.1360963e-13
    493500   1419.1016      248.23344      1170.8682      302.82609      8146.7357      1.0177122      4455.7805     -152.02265     -4.6924513     -8.147073e-14  -7.5110961e-14 -152.02265     -3.1316338e-13
    493750   1390.0226      248.33474      1141.6878      302.94967      7951.1986      1.0177122      4455.7805     -159.16085     -4.6924513     -8.1634565e-14 -7.511274e-14  -159.16085     -3.1349461e-13
    494000   1400.3565      250.70535      1149.6512      305.84163      2952.7576      1.0177122      4455.7805     -155.72674     -4.6924513     -8.177078e-14  -7.5110947e-14 -155.72674     -3.1376345e-13
    494250   1437.6563      272.62274      1165.0335      332.5792       8605.6816      1.0177122      4455.7805     -147.2508      -4.6924513     -8.1757668e-14 -7.5111101e-14 -147.2508      -3.1373754e-13
    494500   1358.4491      227.23491      1131.2142      277.20947      7035.4964      1.0177122      4455.7805     -154.21895     -4.6924513     -8.1798613e-14 -7.5110388e-14 -154.21895     -3.13818e-13  
    494750   1403.5727      256.35541      1147.2173      312.73428      7746.1975      1.0177122      4455.7805     -153.69032     -4.6924513     -8.1526732e-14 -7.5109137e-14 -153.69032     -3.1327174e-13
    495000   1436.7668      269.0981       1167.6687      328.27941      6245.064       1.0177122      4455.7805     -152.51071     -4.6924513     -8.1913112e-14 -7.5108254e-14 -152.51071     -3.1404273e-13
    495250   1420.3751      252.55808      1167.817       308.10183      7843.2359      1.0177122      4455.7805     -149.27433     -4.6924513     -8.1718932e-14 -7.5111371e-14 -149.27433     -3.1366061e-13
    495500   1372.2779      232.11847      1140.1594      283.16704      3949.6337      1.0177122      4455.7805     -148.65466     -4.6924513     -8.208729e-14  -7.5113596e-14 -148.65466     -3.1440177e-13
    495750   1392.5478      244.8564       1147.6914      298.70635      789.76673      1.0177122      4455.7805     -157.84014     -4.6924513     -8.1346142e-14 -7.5111163e-14 -157.84014     -3.1291461e-13
    496000   1399.4884      234.16926      1165.3192      285.66886      7616.3906      1.0177122      4455.7805     -152.13134     -4.6924513     -8.1671964e-14 -7.5111659e-14 -152.13134     -3.1356725e-13
    496250   1434.3853      268.23365      1166.1517      327.22484      4223.5797      1.0177122      4455.7805     -157.03986     -4.6924513     -8.1578232e-14 -7.5111685e-14 -157.03986     -3.1337983e-13
    496500   1412.1596      247.86138      1164.2982      302.37221      6556.9485      1.0177122      4455.7805     -145.27133     -4.6924513     -8.1751858e-14 -7.5110679e-14 -145.27133     -3.1372507e-13
    496750   1388.2931      234.08786      1154.2052      285.56955      7569.2497      1.0177122      4455.7805     -149.37319     -4.6924513     -8.1915026e-14 -7.5111284e-14 -149.37319     -3.1405262e-13
    497000   1401.1221      244.94772      1156.1744      298.81776      4248.2629      1.0177122      4455.7805     -150.119       -4.6924513     -8.1335029e-14 -7.5109525e-14 -150.119       -3.1288911e-13
    497250   1387.6395      249.13957      1138.4999      303.9315       5582.9532      1.0177122      4455.7805     -154.36059     -4.6924513     -8.1719263e-14 -7.5108993e-14 -154.36059     -3.1365651e-13
    497500   1404.4271      233.2965       1171.1306      284.60414      9965.3394      1.0177122      4455.7805     -149.40501     -4.6924513     -8.1277867e-14 -7.511197e-14  -149.40501     -3.1277967e-13
    497750   1421.5768      260.67741      1160.8994      318.00679      4338.2112      1.0177122      4455.7805     -149.86108     -4.6924513     -8.1909866e-14 -7.5112189e-14 -149.86108     -3.1404411e-13
    498000   1426.7687      256.41552      1170.3531      312.80761      6772.8385      1.0177122      4455.7805     -151.51848     -4.6924513     -8.1608958e-14 -7.5109294e-14 -151.51848     -3.134365e-13 
    498250   1397.9637      262.20888      1135.7548      319.87507      8915.4138      1.0177122      4455.7805     -151.99039     -4.6924513     -8.162235e-14  -7.5112598e-14 -151.99039     -3.134699e-13 
    498500   1423.8151      264.75562      1159.0595      322.98191      5946.2763      1.0177122      4455.7805     -157.78751     -4.6924513     -8.1600025e-14 -7.511078e-14  -157.78751     -3.1342161e-13
    498750   1426.257       269.54383      1156.7132      328.82316      6915.1199      1.0177122      4455.7805     -154.65474     -4.6924513     -8.1773108e-14 -7.5111887e-14 -154.65474     -3.1376999e-13
    499000   1395.9608      240.73716      1155.2236      293.68119      6372.2588      1.0177122      4455.7805     -158.908       -4.6924513     -8.1535068e-14 -7.510962e-14  -158.908       -3.1328938e-13
    499250   1432.2515      260.51448      1171.737       317.80803      10880.659      1.0177122      4455.7805     -142.8132      -4.6924513     -8.1853464e-14 -7.5109527e-14 -142.8132      -3.1392598e-13
    499500   1379.0562      235.257        1143.7992      286.99581      7256.2325      1.0177122      4455.7805     -142.63832     -4.6924513     -8.2043249e-14 -7.5112032e-14 -142.63832     -3.1431056e-13
    499750   1408.3726      256.18477      1152.1879      312.52612      5849.9743      1.0177122      4455.7805     -150.91578     -4.6924513     -8.1516511e-14 -7.5109651e-14 -150.91578     -3.1325232e-13
    500000   1436.5022      273.14407      1163.3581      333.21519      4956.3809      1.0177122      4455.7805     -148.76597     -4.6924513     -8.1471532e-14 -7.5106982e-14 -148.76597     -3.1315703e-13
Loop time of 78.6228 on 4 procs for 500000 steps with 276 atoms

Performance: 549.459 ns/day, 0.044 hours/ns, 6359.477 timesteps/s
99.7% CPU use with 4 MPI tasks x no OpenMP threads

MPI task timing breakdown:
Section |  min time  |  avg time  |  max time  |%varavg| %total
---------------------------------------------------------------
Pair    | 48.689     | 54.583     | 58.613     |  57.0 | 69.42
Bond    | 2.4968     | 2.6972     | 2.9395     |   9.7 |  3.43
Kspace  | 2.5056     | 6.6972     | 12.771     | 167.3 |  8.52
Neigh   | 0.027416   | 0.027437   | 0.027458   |   0.0 |  0.03
Comm    | 12.21      | 12.257     | 12.285     |   0.9 | 15.59
Output  | 0.013934   | 0.02447    | 0.027997   |   3.9 |  0.03
Modify  | 1.7529     | 1.7877     | 1.8181     |   1.8 |  2.27
Other   |            | 0.549      |            |       |  0.70

Nlocal:             69 ave          71 max          66 min
Histogram: 1 0 0 0 1 0 0 0 0 2
Nghost:         3712.5 ave        3751 max        3683 min
Histogram: 2 0 0 0 0 0 1 0 0 1
Neighs:        27323.2 ave       28354 max       26108 min
Histogram: 1 0 1 0 0 0 0 0 0 2

Total # of neighbors = 109293
Ave neighs/atom = 395.98913
Ave special neighs/atom = 6.4347826
Neighbor list builds = 49
Dangerous builds = 0

unfix			f1
unfix			f2

Total wall time: 0:01:49
