LAMMPS data file via write_data, version 23 Jun 2022, timestep = 458

276 atoms
5 atom types
312 bonds
6 bond types
576 angles
10 angle types
624 dihedrals
2 dihedral types
360 impropers
1 improper types

4.519416569328383 20.772583430671492 xlo xhi
4.352210443241015 20.93757855675898 ylo yhi
4.428906812242726 20.952659187757654 zlo zhi
-0.9430735775680913 -0.6733979152625663 -0.9378229093714084 xy xz yz

Masses

1 65.38
2 14.0067
3 12.0107
4 1.00794
5 12.0107

PairIJ Coeffs # lj/cut/coul/long

1 1 0.124 2.46155 12.5
1 2 0.0924986 2.86112 12.5
1 3 0.114105 2.9462 12.5
1 4 0.0738647 2.51634 12.5
1 5 0.114105 2.9462 12.5
2 2 0.069 3.26069 12.5
2 3 0.0851176 3.34577 12.5
2 4 0.0550999 2.91591 12.5
2 5 0.0851176 3.34577 12.5
3 3 0.105 3.43085 12.5
3 4 0.0679706 3.00099 12.5
3 5 0.105 3.43085 12.5
4 4 0.044 2.57113 12.5
4 5 0.0679706 3.00099 12.5
5 5 0.105 3.43085 12.5

Bond Coeffs # harmonic

1 165.837 1.88171
2 663.719 1.34507
3 369.944 1.486
4 462.655 1.37926
5 357.44 1.08142
6 331.069 1.1094

Dihedral Coeffs # harmonic

1 3.36856 -1 2
2 0.166667 1 3

Atoms # full

25 444 3 0.3212 14.759565117723426 4.196767548410257 10.754750024366531 0 0 0
266 444 2 -0.3238 10.661581070262718 9.122912268187267 4.941328048412077 0 0 1
195 444 4 0.1043 11.06692895597973 5.882418006918543 4.819965805594254 0 0 1
31 444 5 -0.4691 14.949899441791052 5.663872838582606 10.78975200300081 0 0 0
32 444 4 0.1313 14.643078193321962 6.044232103852223 11.782804119388462 0 0 0
33 444 4 0.1313 14.346396372077129 6.16729025142859 10.018749180391334 0 0 0
34 444 4 0.1313 16.01642027598843 5.898518886155427 10.605994605430311 0 0 0
47 444 3 0.3212 10.561343590845258 4.655354315777132 10.523118920450353 0 0 0
53 444 5 -0.4691 11.494427223732226 5.259018041961377 11.490302463794054 0 0 0
54 444 4 0.1313 12.242401354487235 5.852276735743294 10.939988269182424 0 0 0
67 444 4 0.1313 5.442950639454899 11.988528286999834 10.930124045322792 0 0 0
56 444 4 0.1313 10.947238908840411 5.95728082510264 12.147433228234938 0 0 0
57 444 2 -0.3238 20.03499993040765 10.619957471438173 9.348563431753664 -1 0 0
58 444 3 0.3212 4.293689477650501 10.211661376549225 10.528062794251484 0 0 0
59 444 2 -0.3238 20.14408538805094 8.978378877433723 10.868719122548622 -1 0 0
60 444 3 -0.06320000000000001 19.361284120104244 8.57709008479373 9.847908472333081 0 0 0
61 444 3 -0.06320000000000001 19.294639462699063 9.58552388271081 8.913044944192308 0 0 0
62 444 4 0.1043 18.795957358271686 7.653788728087789 9.829784934900397 0 0 0
63 444 4 0.1043 18.67949518194297 9.59455302066374 8.023247791527583 0 0 0
64 444 5 -0.4691 5.082711104395591 11.078773695391432 11.43951712883933 0 0 0
65 444 4 0.1313 5.946403434444835 10.511163405135788 11.838585903895211 0 0 0
268 444 2 -0.3238 9.062952508269746 10.70038093643792 4.860016687360609 0 0 1
149 444 3 -0.06320000000000001 6.772537713087012 11.845295086630912 8.516323404842078 0 0 0
80 444 3 0.3212 14.601200410328328 10.568805187910858 4.788082486614314 0 0 0
86 444 5 -0.4691 15.202917596372547 10.249077228909783 6.100924680089987 0 0 0
87 444 4 0.1313 14.423136621225362 9.867217337898996 6.787555409536999 0 0 0
88 444 4 0.1313 15.628085008470988 11.1659585502816 6.55228600230455 0 0 0
89 444 4 0.1313 16.00232031901197 9.497206523540918 5.96864143334921 0 0 0
223 444 3 0.3212 18.374880058079533 5.964883201079242 12.51500815301328 0 0 0
276 444 4 0.1313 11.878379575464088 11.727771478341097 5.3699306012035075 0 0 0
231 444 4 0.1313 18.631883827672066 4.470171483996966 11.046195220135223 0 0 0
55 444 4 0.1313 11.984716779139983 4.464909126482881 12.08609907761775 0 0 0
131 444 4 0.1313 18.276068605859457 10.256170003955733 5.545867679751122 0 0 0
11 444 1 0.6388 8.33003593969496 12.457197317625376 4.929371380175419 0 0 0
6 444 1 0.6388 8.393876936795225 4.139839690869903 12.443562508944375 0 0 0
200 444 2 -0.3238 13.211261779088124 5.844643458768412 7.803503722722799 0 0 0
201 444 3 0.3212 12.444972854170114 6.833164223149042 7.293542927175803 0 0 0
202 444 2 -0.3238 13.100749951086339 7.580783291841991 6.3792584276376285 0 0 0
203 444 3 -0.06320000000000001 14.345043168716437 7.065752972750015 6.356688978475911 0 0 0
204 444 3 -0.06320000000000001 14.415052344126837 6.01242349569068 7.231355793683601 0 0 0
205 444 4 0.1043 15.090102754962636 7.304948121791174 5.609081987852856 0 0 0
206 444 4 0.1043 15.23295723669055 5.30683582309702 7.311346246066642 0 0 0
207 444 5 -0.4691 10.991837031800351 6.948931062467052 7.556166181307212 0 0 0
208 444 4 0.1313 10.814909300112141 6.871141265147559 8.646217694885117 0 0 0
209 444 4 0.1313 10.437720826339582 6.145957744445619 7.0394961152628825 0 0 0
210 444 4 0.1313 10.620027574164027 7.936244475685281 7.22595592100005 0 0 0
66 444 4 0.1313 4.449695840794249 11.420513662361882 12.270401255189116 1 0 0
124 444 3 0.3212 18.40081795166917 12.265326341751416 6.216856460396246 0 0 0
9 444 1 0.6388 4.0215228660915905 8.138231408101568 12.55021893320157 0 0 0
253 444 4 0.1313 5.937479479230453 7.312118477260693 10.188649900571702 0 0 0
130 444 5 -0.4691 19.000659274194714 11.091489563062707 5.545672285153957 0 0 0
151 444 4 0.1043 6.72963864367367 11.156323864499859 9.342809832083399 0 0 0
251 444 5 -0.4691 6.4954763817640755 6.419047593709878 10.531996977631437 0 0 0
252 444 4 0.1313 7.575164462199681 6.571434446144233 10.33403558678584 0 0 0
254 444 4 0.1313 6.1382282543743 5.525459213708131 9.984060373397549 0 0 0
267 444 3 0.3212 10.278115145630903 10.347129910600014 5.336663441632836 0 0 0
273 444 5 -0.4691 11.180391282364042 11.255537944645315 6.0800502726244074 0 0 0
274 444 4 0.1313 11.757426145825281 10.675310950373103 6.827381423671705 0 0 0
275 444 4 0.1313 10.60834588244106 12.045950093112351 6.599338635192711 0 0 0
245 444 3 0.3212 6.2872190285619505 6.212574856506198 11.98173119853284 0 0 0
148 444 3 -0.06320000000000001 7.82510521466184 11.923231820064872 7.6511241100622245 0 0 0
230 444 4 0.1313 19.88117075603001 5.742696573017676 11.02955122789209 0 0 0
46 444 2 -0.3238 9.273953133108481 4.373661982318118 10.802073242024555 0 1 0
229 444 5 -0.4691 19.25638201553932 5.114603085054282 11.69030860254909 0 0 0
12 444 1 0.6388 12.43460205447426 8.466891590703948 4.833783317733065 0 0 0
132 444 4 0.1313 19.92874258816414 10.785560823244142 6.070076265880906 0 0 0
232 444 4 0.1313 19.895143004271297 4.494574140956719 12.349461594741122 0 0 0
150 444 4 0.1043 8.714950362158046 11.312033735730044 7.702746344864851 0 0 0
48 444 2 -0.3238 10.93678084186975 4.238453895904853 9.298239593714634 0 1 0
3 444 1 0.6388 3.937035769065218 12.36341338517104 8.656764738653182 0 0 0
133 444 4 0.1313 19.24807333102973 11.361395528138198 4.501685378086393 0 0 0
41 444 4 0.1043 18.272541155168238 12.150482072925119 10.957862702066711 0 0 0
2 444 1 0.6388 12.705164878699959 4.177637566554907 8.553540791667425 0 0 0
199 444 4 0.1313 13.79783341365975 7.179840826347723 18.58806384583439 0 0 0
92 444 2 -0.3238 9.547867288642689 4.386823248755985 13.87773737508192 0 0 0
225 444 3 -0.06320000000000001 17.575089669767358 7.647116440053401 13.551945619163384 0 0 0
116 444 3 -0.06320000000000001 14.905290149997459 4.433976711755558 16.80281649518865 0 0 0
13 444 2 -0.3238 4.455643696421926 9.330600590662481 13.984468641475129 0 0 0
14 444 3 0.3212 19.983807996469352 10.2358955026101 14.666576555898851 -1 0 0
15 444 2 -0.3238 4.3723696111755475 10.684235024954315 15.76529691710431 0 0 0
16 444 3 -0.06320000000000001 5.576108812586073 10.09750860249817 15.741857001322243 0 0 0
17 444 3 -0.06320000000000001 5.635015959767696 9.28687762755055 14.642724016546163 0 0 0
18 444 4 0.1043 6.379842845959666 10.3015103031234 16.438477961063995 0 0 0
19 444 4 0.1043 6.499574722100039 8.712578806598582 14.33772920112018 0 0 0
20 444 5 -0.4691 18.793222284526163 10.913414495967714 14.09170170975113 0 0 0
188 444 4 0.1313 5.102224088076085 9.766158685119855 20.484484273014118 0 0 0
22 444 4 0.1313 17.929161952644122 10.862215614243242 14.774186062041878 0 0 0
23 444 4 0.1313 18.527658635293346 10.45947317034407 13.115908347763591 0 0 0
198 444 4 0.1313 13.191583028096002 6.381121861489591 17.073144480216573 0 0 0
81 444 2 -0.3238 14.329557137365562 10.670998407397443 20.552566337984604 0 0 0
82 444 3 -0.06320000000000001 13.454802553170232 10.702825891810363 19.532697738086082 0 0 0
83 444 3 -0.06320000000000001 12.556794216166853 9.68116385424856 19.68111703211317 0 0 0
227 444 4 0.1043 17.455610434462947 8.607305207098007 14.022593404875868 0 0 0
85 444 4 0.1043 11.690264434589 9.500412210563313 19.05894527916534 0 0 0
228 444 4 0.1043 15.730572677276264 6.632051313472436 14.14073269668033 0 0 0
156 444 2 -0.3238 18.46454842363068 11.72637591897086 17.63488509743949 0 0 0
158 444 2 -0.3238 16.84704057796163 11.61584444062466 19.17055085761758 0 0 0
93 444 3 -0.06320000000000001 9.734907191731674 5.564947107722657 14.492703783858152 0 0 0
94 444 3 -0.06320000000000001 10.576944771404847 5.372621787343554 15.54814277594316 0 0 0
222 444 2 -0.3238 17.201617881999653 5.538213510980497 13.001127229903597 0 0 0
96 444 4 0.1043 10.905704312111585 6.136185411900931 16.235682993889494 0 0 0
114 444 2 -0.3238 15.508050585201792 3.8637405959413136 14.74770874949227 0 0 0
118 444 4 0.1043 14.915803497073583 4.879399914735153 17.78906051667527 0 0 0
271 444 4 0.1043 7.057705979230601 8.601359354047101 20.151263804284895 0 0 0
185 444 5 -0.4691 4.982168604288262 10.082116250751415 19.42891399714326 0 0 0
95 444 4 0.1043 9.276852583426583 6.500479887293109 14.195458515234762 0 0 0
79 444 2 -0.3238 12.869727103124458 8.972773670043427 20.780688978378898 0 0 0
248 444 3 -0.06320000000000001 5.464628615938912 6.333838884523747 13.945422506970353 0 0 0
250 444 4 0.1043 4.852857344691304 6.61666216048039 14.793774301080115 0 0 0
117 444 4 0.1043 16.834386083314282 5.05308913660416 15.967598300406058 0 0 0
249 444 4 0.1043 6.938251835647362 5.040610162441392 14.862344828492708 0 0 0
196 444 5 -0.4691 12.901870328230883 6.82214773847758 18.04268512891103 0 0 0
226 444 3 -0.06320000000000001 16.679897200761268 6.614100084024335 13.620746063978663 0 0 0
186 444 4 0.1313 5.468312499250726 9.374740917753737 18.730468338290112 0 0 0
197 444 4 0.1313 12.227659597134029 7.666071469026852 17.816868210683797 0 0 0
159 444 3 -0.06320000000000001 16.767474975905987 10.527023864132584 18.388249286071694 0 0 0
160 444 3 -0.06320000000000001 17.772424285710326 10.58376098687074 17.460402310843236 0 0 0
260 444 4 0.1043 9.660871714490312 11.476157785122783 19.371685845353998 0 0 0
162 444 4 0.1043 18.049994861910374 9.783684086953652 16.787343676661497 0 0 0
161 444 4 0.1043 16.068116100613665 9.712028028824829 18.52934329462982 0 0 0
179 444 3 0.3212 5.556694819563798 11.429910373457137 19.240158866959664 0 0 0
187 444 4 0.1313 3.900250376141908 10.110993580583925 19.196592849219755 0 0 0
90 444 2 -0.3238 10.925354265842879 4.073676303321706 15.607869521618959 0 0 0
247 444 3 -0.06320000000000001 6.52964111659309 5.500352473821811 13.975131603043023 0 0 0
189 444 2 -0.3238 11.676860662900271 6.126963120269945 20.09598971441116 0 0 0
190 444 3 0.3212 12.169941047632857 5.839958539332943 18.87374268631499 0 0 0
191 444 2 -0.3238 11.802474088227928 4.6110183181352244 18.44610961151719 0 0 0
192 444 3 -0.06320000000000001 11.013556842423382 4.133638212323773 19.42198289705786 0 0 0
193 444 3 -0.06320000000000001 10.956000132461043 5.045117893488317 20.430522379174185 0 0 0
84 444 4 0.1043 13.457694588327431 11.445746738116556 18.744281643652098 0 0 0
115 444 3 -0.06320000000000001 15.894895307216789 4.525030600522146 15.858127098150659 0 0 0
224 444 2 -0.3238 18.654542915708085 7.236661694687452 12.864225461239114 0 0 0
112 444 2 -0.3238 13.88527881428453 3.7313886960823948 16.282092211033582 0 0 0
272 444 4 0.1043 8.932094097721336 6.789852446147382 20.201303457836108 0 0 0
21 444 4 0.1313 19.04591858631499 11.97513922959847 13.912909985301777 0 0 0
270 444 3 -0.06320000000000001 8.94174035404427 7.713300941039002 20.762755962968633 0 0 0
244 444 2 -0.3238 5.333097869600395 6.829438075635087 12.70513626282875 0 0 0
269 444 3 -0.06320000000000001 7.964564385651821 8.673818268062487 20.71899299926118 0 0 0
246 444 2 -0.3238 7.014888482486116 5.362336918846966 12.730786408497018 0 0 0
262 444 5 -0.4691 9.682820309555684 15.531675499927243 6.115936750416333 0 0 0
235 444 2 -0.3238 6.728528126475348 18.973578803731037 12.405891406769884 0 0 0
265 444 4 0.1313 10.493612172265479 16.02365662454772 6.688199372077845 0 0 0
129 444 4 0.1043 18.149479458431646 14.539105594399382 8.42309673688255 0 0 0
24 444 2 -0.3238 14.441338031575492 19.949123769211727 11.614561055181888 0 0 0
26 444 2 -0.3238 12.99710119092932 20.13936238902665 9.888910951782542 0 0 0
27 444 3 -0.06320000000000001 13.124910871741443 18.84146359053934 10.220228817794347 0 0 0
28 444 3 -0.06320000000000001 14.030482003060719 18.721703683039596 11.246279768969499 0 0 0
29 444 4 0.1043 12.570148274826458 18.03305125849055 9.762002379908395 0 0 0
30 444 4 0.1043 14.341584999026272 17.797734128966415 11.717169813586267 0 0 0
35 444 2 -0.3238 19.743766544968942 13.467147419285604 10.097190702106527 0 0 0
36 444 3 0.3212 3.8179598937091384 14.72292622218008 10.43861394265729 0 0 0
37 444 2 -0.3238 19.42029316318005 15.13525969395368 11.549870674763786 0 0 0
38 444 3 -0.06320000000000001 18.594149726628405 14.118606564077417 11.85465258226618 0 0 0
39 444 3 -0.06320000000000001 18.78867645768562 13.10274639581117 10.967360328395152 0 0 0
49 444 3 -0.06320000000000001 8.866602214139327 20.29358618207353 8.776003522025631 0 0 0
218 444 5 -0.4691 17.676385955885625 18.256346891281378 11.194673219231591 0 0 0
42 444 5 -0.4691 4.521971464108853 15.625466967491668 9.495990560933791 0 0 0
43 444 4 0.1313 5.55661607018334 15.26604015946966 9.33168464618147 0 0 0
44 444 4 0.1313 4.500283268472954 16.66840123192185 9.864528289895997 0 0 0
45 444 4 0.1313 3.9987257992336978 15.615237931860534 8.521894354031632 0 0 0
264 444 4 0.1313 8.994436461580152 16.29840073106094 5.70993012316477 0 0 0
263 444 4 0.1313 9.126770813835275 14.85377531469712 6.793509313448683 0 0 0
125 444 2 -0.3238 17.378323019352457 12.979506858032988 5.698718829380425 0 0 0
221 444 4 0.1313 16.834288518865332 18.85594273856507 10.801510378086883 0 0 0
51 444 4 0.1043 8.788464695618368 19.745318912275163 7.853788849343725 0 0 0
123 444 2 -0.3238 18.8510135247342 12.778139914251787 7.38127325382665 0 0 0
139 444 4 0.1043 9.989990805152765 20.560730105149275 6.186327156329705 0 0 0
75 444 5 -0.4691 13.824244195950511 14.329812591406922 5.5612119898522385 0 0 0
76 444 4 0.1313 13.236016811685598 15.029829314877928 6.186357101865434 0 0 0
77 444 4 0.1313 14.5235233003977 13.76558601581061 6.201992922770595 0 0 0
78 444 4 0.1313 13.15222839633097 13.597077596567734 5.086747835736139 0 0 0
256 444 3 0.3212 10.267109196991617 14.760199720507414 4.997772786114748 0 0 0
128 444 4 0.1043 16.52897715857089 14.828321161389573 6.419126081682742 0 0 0
233 444 2 -0.3238 5.256135102901909 17.287904154069984 12.471463630627346 0 0 0
236 444 3 -0.06320000000000001 7.201237203546453 17.95635988596651 11.662959312931557 0 0 0
239 444 4 0.1043 6.464001822090344 15.929095451555916 11.310949575903178 0 0 0
238 444 4 0.1043 8.13099093700458 17.972690244862985 11.107798907091148 0 0 0
237 444 3 -0.06320000000000001 6.317889722670107 16.911197566464594 11.734638050787476 0 0 0
127 444 3 -0.06320000000000001 18.081005716062016 13.863643392171271 7.584304695348079 0 0 0
126 444 3 -0.06320000000000001 17.20901880349303 14.000199452909778 6.553112484365298 0 0 0
134 444 2 -0.3238 11.861582644622121 18.03937236467739 5.407001723988537 0 0 0
135 444 3 0.3212 12.412713760725897 18.544439812786432 6.5319899696654895 0 0 0
136 444 2 -0.3238 11.693322502421744 19.57208284969265 7.050665862993401 0 0 0
137 444 3 -0.06320000000000001 10.711051921877178 19.75959650596988 6.153363628108057 0 0 0
138 444 3 -0.06320000000000001 10.787681575403411 18.809897402479194 5.18321402073137 0 0 0
153 444 4 0.1313 5.938054387032894 14.541142348401424 5.3753540609063055 0 0 0
220 444 4 0.1313 18.635378995252253 18.660262252035057 10.81325196259075 0 0 0
141 444 5 -0.4691 13.70905416704779 18.07461247684007 7.068927495302983 0 0 0
142 444 4 0.1313 14.195875411336516 18.8865841144455 7.6441093436134 0 0 0
143 444 4 0.1313 14.375679117637196 17.794798410375364 6.228711987654026 0 0 0
144 444 4 0.1313 13.54298533168785 17.189292104721314 7.711876651310093 0 0 0
52 444 4 0.1043 6.863320335627723 19.964606874050737 9.586985427416272 0 0 0
146 444 3 0.3212 6.202853443778265 13.068859471132823 6.8745754621313235 0 0 0
152 444 5 -0.4691 5.342355099470444 13.779526186304416 5.910753896139049 0 0 0
219 444 4 0.1313 17.558902542999604 17.20761749169492 10.855512838760976 0 0 0
154 444 4 0.1313 4.527413333147306 14.303200628989766 6.443652325595523 0 0 0
147 444 2 -0.3238 7.4632329323475535 12.667042833280595 6.59516570015044 0 0 0
155 444 4 0.1313 4.916356282528464 13.047416917993926 5.201429553598972 0 0 0
50 444 3 -0.06320000000000001 7.849541389809811 20.40283074870632 9.68159518901701 0 0 0
257 444 2 -0.3238 9.796598703119038 13.568670926541955 4.585208087022681 0 0 1
145 444 2 -0.3238 5.7351312678153095 12.556117376843623 8.029979327885341 0 0 0
69 444 3 0.3212 14.543552666243855 15.074873738987177 4.500090892419858 0 0 0
212 444 3 0.3212 17.692792788383443 18.288513442555654 12.67416272694167 0 0 0
91 444 3 0.3212 9.331447062135727 20.087224429321946 14.571671316746363 0 -1 0
113 444 3 0.3212 13.3739614152753 19.92923317558108 15.069959162681414 0 -1 0
68 444 2 -0.3238 14.922002911698407 13.629582973549766 20.357772347637322 0 0 0
70 444 2 -0.3238 13.376112825597987 15.242490164816171 20.43903578382128 0 0 0
71 444 3 -0.06320000000000001 14.16968149999343 15.44640807792209 19.368242183305263 0 0 0
72 444 3 -0.06320000000000001 15.120973207116704 14.463163587571174 19.323673835827922 0 0 0
73 444 4 0.1043 13.96882542672875 16.140397105229546 18.56597501121917 0 0 0
74 444 4 0.1043 15.818210213629735 14.293221592307114 18.51393366545708 0 0 0
98 444 4 0.1313 9.598611931395123 18.52898425459111 13.164441875085062 0 0 0
100 444 4 0.1313 10.065050862509228 18.093481454715103 14.834776567418853 0 0 0
101 444 2 -0.3238 4.096567423962241 15.248195918995812 14.354480940005468 0 0 0
102 444 3 0.3212 19.63065608794466 14.48188067448659 15.206352949863756 -1 0 0
103 444 2 -0.3238 4.143359562326161 13.581163355291402 15.837606851589323 0 0 0
104 444 3 -0.06320000000000001 5.386586891650928 13.789810477220241 15.369730941358526 0 0 0
105 444 3 -0.06320000000000001 5.361374728897435 14.815652383011653 14.477590986238813 0 0 0
7 444 1 0.6388 3.667772941560365 16.34654440255994 12.908290580022213 0 0 0
183 444 4 0.1043 5.6118949927911865 14.354288992304268 17.98557125832669 0 0 0
108 444 5 -0.4691 18.163074909719654 14.560227483658627 15.404817046716826 0 0 0
109 444 4 0.1313 17.726097926792967 13.543186703098879 15.35769186216132 0 0 0
110 444 4 0.1313 17.68932682681745 15.196894762389396 14.637201307070876 0 0 0
111 444 4 0.1313 17.958614021578914 14.9935001327919 16.40277477128669 0 0 0
120 444 4 0.1313 13.509034778241439 18.252218941084895 13.812069396003658 0 0 0
157 444 3 0.3212 17.885059997673558 12.322148942359501 18.69015359748422 0 0 0
163 444 5 -0.4691 18.47559596434596 13.486598906182769 19.387372401542034 0 0 0
164 444 4 0.1313 19.375323439836276 13.157672707148205 19.9368774046648 0 0 0
165 444 4 0.1313 17.75829918575116 13.911381614653074 20.115905877408547 0 0 0
166 444 4 0.1313 18.761130502758263 14.259685975900343 18.648097671168713 0 0 0
167 444 2 -0.3238 10.921196861936117 18.350295963804786 17.531382292099693 0 0 0
168 444 3 0.3212 11.659819940863429 17.809893903095077 18.513572985114973 0 0 0
169 444 2 -0.3238 11.128388938399727 16.676023872053452 18.993342417433812 0 0 0
170 444 3 -0.06320000000000001 9.998408145729236 16.48793702603282 18.289056733709117 0 0 0
171 444 3 -0.06320000000000001 9.85750720146821 17.531690776429294 17.40712554543071 0 0 0
172 444 4 0.1043 9.259532300368914 15.724395735221512 18.50069807559425 0 0 0
173 444 4 0.1043 8.969247236787673 17.748031499255003 16.830091717324514 0 0 0
174 444 5 -0.4691 12.804090451249472 18.510681325089166 19.15116934521893 0 0 0
175 444 4 0.1313 12.502260385035704 19.51509964967808 19.493591792821896 0 0 0
176 444 4 0.1313 13.630992647584824 18.602080529185336 18.420439864166283 0 0 0
177 444 4 0.1313 13.155721033638226 17.956878011431506 20.041971780708028 0 0 0
194 444 4 0.1043 9.570166129320777 19.76095234474025 19.40121534641098 0 -1 0
4 444 1 0.6388 15.723505122122903 11.95690098219581 20.620430867655745 0 0 -1
180 444 2 -0.3238 5.12282232501135 12.274375795403511 18.288874637096086 0 0 0
99 444 4 0.1313 8.330317671917962 18.226155920309566 14.42252070123504 0 -1 0
234 444 3 0.3212 5.58591892133031 18.500891520532075 12.936529065785225 0 0 0
184 444 4 0.1043 7.247723028656748 14.013187376171016 19.992290728395158 0 0 0
211 444 2 -0.3238 16.907037466401096 19.084062295160898 13.43561526753198 0 0 0
122 444 4 0.1313 12.19770831758526 18.193164615300372 14.97937925433617 0 -1 0
213 444 2 -0.3238 18.525643167310847 17.524959740508244 13.408438923049156 0 0 0
214 444 3 -0.06320000000000001 18.23395643528885 17.829920194553438 14.683904534180199 0 0 0
215 444 3 -0.06320000000000001 17.25435287719642 18.778500419758522 14.699737359592717 0 0 0
216 444 4 0.1043 18.7267801149861 17.410430171582558 15.551723550094689 0 0 0
217 444 4 0.1043 16.829673680164596 19.220057878463365 15.588544572752376 0 0 0
121 444 4 0.1313 12.05605101913309 19.3113199360713 13.52705624596959 0 -1 0
119 444 5 -0.4691 12.727495992704291 18.86843170213101 14.286608051118709 0 -1 0
240 444 5 -0.4691 4.983353489026865 19.041951074684736 14.165656393363834 0 0 0
242 444 4 0.1313 4.582731839893214 18.20830313985064 14.767529331773567 0 0 0
243 444 4 0.1313 4.180152213317786 19.761730405239675 13.915693344642111 0 0 0
261 444 4 0.1043 11.368791587836482 13.442709951256047 18.901400842665787 0 0 0
181 444 3 -0.06320000000000001 5.763093834551357 13.428949623808045 18.524902897774428 0 0 0
178 444 2 -0.3238 6.503181416116936 11.984944914942336 20.027488496778307 0 0 0
259 444 3 -0.06320000000000001 10.685545422507683 13.369372904101652 19.738876062481793 0 0 0
241 444 4 0.1313 5.7794104112295415 19.481088988501355 14.79002338832073 0 0 0
97 444 5 -0.4691 9.336899555472884 18.64767018754918 14.234014791592971 0 -1 0
258 444 3 -0.06320000000000001 9.820728085583479 12.348538624674767 19.99343214545006 0 0 0
10 444 1 0.6388 11.598536711628238 15.835289717403601 20.592272685755955 0 0 -1
182 444 3 -0.06320000000000001 6.608463663915161 13.24943589955904 19.572584602626893 0 0 0
5 444 1 0.6388 11.191493420259182 20.107531117469605 16.936176469495205 0 -1 0
107 444 4 0.1043 6.197772604361338 15.155322388250998 13.882913387477043 0 0 0
106 444 4 0.1043 6.248623452261107 13.182422416344332 15.617838772827213 0 0 0
1 444 1 0.6388 3.8954373068857127 12.076331655988692 16.898887282029023 0 0 0
255 444 2 -0.3238 10.544415861086959 14.301647516614118 20.69505876625213 0 0 0
140 444 4 0.1043 9.450715917520721 17.775007793900635 20.858108966427867 0 0 -1
8 444 1 0.6388 15.549139512749473 20.379133469671473 13.12572760414656 0 -1 0
40 444 4 0.1043 17.943164227913257 14.078622657379274 12.710875559145611 0 0 0

Velocities

25 -0.0034397527358205724 0.003466817181100269 -0.009618304696328921
266 -0.007238101270315281 0.0011883688740124839 -0.009524828045993552
195 -0.018877324758325157 -0.0014319664302307954 0.016973742590384203
31 -0.0051852600938063565 0.007549998725837996 0.0019239096261242311
32 -0.0023315344563933802 0.02366611401768319 0.002350463559766984
33 -0.021434956569461816 -0.004125320964442988 0.003383849526582054
34 0.006525605631223147 0.011598108545386638 0.008425578572162484
47 -0.007021266638518454 0.003010919978664083 0.004594858258505832
53 0.0028642516400418268 0.0022304837323033812 0.001682620834057123
54 -0.02628924486607527 -0.010183604547735368 -0.009372860203923784
67 0.02046396869158987 -0.007263613673114139 -0.02094665019237068
56 0.027363685347762932 -0.008066113995817168 0.012805119952104633
57 -0.004035345188582394 0.0014570236073223367 0.011712305253619146
58 -0.0010816717122432292 0.00609038993047453 0.0044403707547427135
59 0.0025337908478306236 0.005338616571336039 0.0027153148111229144
60 0.0003772367514341094 0.005824617701159259 0.0022363383738755317
61 0.007538987660807971 0.007256730907389027 -0.007898660165587247
62 -0.02453474862478477 -0.021288771039154233 0.0010282167318323766
63 0.023010694528083984 0.0098795833257122 -0.00937809101254692
64 -0.00010817904621857065 -0.0007169929517032103 0.006611936476361435
65 0.014819720709734894 -0.003620019921336424 0.000416221166109894
268 -0.004759508748168467 0.0013861402548080123 -0.002385404596449039
149 -0.0006035737561755746 0.006507412426140279 -0.0017187780625194408
80 -0.002006104447075414 -0.005888001562795462 0.0006369633086359685
86 0.004997343335529331 0.0005294126845391466 -0.0020197778920467016
87 0.005622564111332244 -0.00499618174858578 0.009058875248180623
88 -0.02352869234704007 -0.0006342977816589559 -0.027207054797352314
89 0.01982130992848538 -0.034001718294058784 0.02176005455740907
223 0.005930870854453083 -0.005650470019501144 0.0015050858654195444
276 0.0038896735508780274 -0.03187710889575072 0.013024021695868271
231 0.003996665042612303 0.002565019979846997 0.011802624110029716
55 0.004019448668038171 0.012771767450314359 -0.02589472012931584
131 0.019103540641130887 -0.03504053368787863 -0.002328288521914479
11 -0.003767529071651849 -0.001887462319360806 -0.0005326674607119287
6 0.002628750586386754 -0.0016874390262027134 -0.0011436910695632148
200 -0.0010033952190164346 0.0010459769512056233 -0.000877637770344349
201 0.004883552888608844 0.0031754987071574642 -0.0028165958540802044
202 0.0021213360374971405 -9.746346829867853e-06 -0.001727809929423336
203 0.00016193168326881333 -0.0041868583226005495 -0.0011084462723611125
204 -0.00605796847017257 0.004029693546655005 0.004252760397112412
205 -0.004191302332946599 -0.011716197491931795 0.024552247640214048
206 0.006617430234554043 -0.011839181184686234 -0.009729702766546264
207 0.007296922542056736 -0.00739128259874513 0.006376839481528316
208 -0.021726612487235928 -0.012492868192219958 0.015277225482911279
209 0.007207843727298037 0.03646025224374731 -0.0027250674241909327
210 0.034644959362289174 0.012157100904574968 -0.0005721164181169303
66 0.03575211302934291 -0.002056259829675452 0.008241056485780326
124 -0.0007173758558022653 -0.009307810844709257 0.00034847446292919
9 -0.000497366222015559 -0.004372518071455443 0.0038843609653187367
253 -0.014870693692487204 0.012762536288761518 0.011660815711387574
130 0.003101534805893302 0.01066072394170274 0.0012697809939691902
151 -0.02490541225614079 -0.0018978713510662904 -0.02133472828554279
251 0.003946563648398377 6.952105229010547e-05 0.000779084039088167
252 -0.00888424695835062 -0.007148757390793897 0.00901803950444889
254 0.015590330784763145 0.0003123918054307902 -0.01650183746539693
267 -0.005059202104690745 0.004571735846385162 -0.004803963922904754
273 0.0016746448464800834 -0.0004347772334350861 0.005933598291791019
274 0.009865164287115008 -0.026060751330483446 -0.01620540941135942
275 -0.027665917487424568 0.018623978158893273 -0.020417698752536347
245 0.00015623856108253965 -0.0004690889398178534 -0.005942278347030764
148 0.0031344377899864403 8.712059665048692e-05 -0.003496495275548626
230 0.018242983182903388 -0.004322718300627165 -0.04966925288279513
46 0.004894436547157011 -0.0070168409089557795 -0.003778219868562472
229 0.006437257476608299 0.0063532666536030395 0.005362925910170757
12 -0.0013760191867778157 0.00414779179178232 -0.002830693619065664
132 -0.010205640986189184 0.017533452012406935 -0.0010927369323375283
232 0.0014419766613785326 0.01670135061393709 0.006238842412823562
150 0.046513417726637696 0.028173165142284552 -0.010291652352337203
48 -0.0037340482602986878 0.0039220690479402544 -0.005434321534921616
3 -0.005327968471826252 0.0026348250376739034 -0.0017322646980243027
133 -0.003268072561297332 -0.022647560523361164 0.010449135302463977
41 -0.003925229897686651 -0.007290092008609801 -0.0032581845018964037
2 -0.0018416383530393669 0.0010222274335620527 -0.000892782322714721
199 -5.766178836039871e-05 0.01709065884284736 0.014733376423556451
92 0.0027385057409181767 0.00173140081197254 -0.0016217916866747171
225 5.910962873110308e-05 -0.006582110112933719 0.0045846034817254785
116 -0.0006631258389909734 -0.004162534746290663 0.003735239793521386
13 0.00042974665351369005 0.00458322747216984 0.0032982520742633713
14 0.0032876243188936878 0.006862412431914082 -0.0001532009122276209
15 0.00244854469668046 -0.0008353131736124458 -0.008137021543837039
16 -0.0036103768408576624 -0.0018228635143374243 -0.010328383672215426
17 0.005472132831301795 0.0011258189116799607 -0.0008107155955850432
18 0.008888327928368302 0.024142578476251272 -0.02493218808833061
19 -0.007634439008659882 0.018392429374695974 -0.02522091880850278
20 0.009678420385443774 -0.0015897849845689402 -0.004238611568440592
188 -0.02090676173015418 0.012840969076371628 0.014313806059430393
22 -0.007616948018034204 -0.020178580403962237 -0.0009440714056254125
23 0.02822387353163645 -0.029761632921392556 0.0033481810253043497
198 -0.007490720051138941 -0.020248658930813804 0.015012554318961594
81 -0.004282892900052876 0.002448371336441755 0.0008388223393454726
82 0.006668941302396005 0.00444003432778981 -0.0032099679907131667
83 0.0004546617062634735 0.008449823111943741 -0.002101144344844049
227 -0.02586660965455642 -0.01432928935777307 -0.011181982110857117
85 0.011019955174259207 -0.014505086757510681 -0.005424483752126688
228 0.0015397838576194302 -0.01251549339737935 -0.01719813833117252
156 -0.00026199152630761077 0.0017746127626803547 -0.0006214820621355184