LAMMPS data file via write_data, version 23 Jun 2022, timestep = 532

276 atoms
5 atom types
312 bonds
6 bond types
576 angles
10 angle types
624 dihedrals
2 dihedral types
360 impropers
1 improper types

4.505474596208749 20.78652540379125 xlo xhi
4.3760096664883426 20.913779333511435 ylo yhi
4.416422867755102 20.965143132244737 zlo zhi
-0.9527057945133474 -0.5139826202593761 -1.0127118712302348 xy xz yz

Masses

1 65.38
2 14.0067
3 12.0107
4 1.00794
5 12.0107

PairIJ Coeffs # lj/cut/coul/long

1 1 0.124 2.46155 12.5
1 2 0.0924986 2.86112 12.5
1 3 0.114105 2.9462 12.5
1 4 0.0738647 2.51634 12.5
1 5 0.114105 2.9462 12.5
2 2 0.069 3.26069 12.5
2 3 0.0851176 3.34577 12.5
2 4 0.0550999 2.91591 12.5
2 5 0.0851176 3.34577 12.5
3 3 0.105 3.43085 12.5
3 4 0.0679706 3.00099 12.5
3 5 0.105 3.43085 12.5
4 4 0.044 2.57113 12.5
4 5 0.0679706 3.00099 12.5
5 5 0.105 3.43085 12.5

Bond Coeffs # harmonic

1 165.837 1.88171
2 663.719 1.34507
3 369.944 1.486
4 462.655 1.37926
5 357.44 1.08142
6 331.069 1.1094

Dihedral Coeffs # harmonic

1 3.36856 -1 2
2 0.166667 1 3

Atoms # full

1 444 1 0.6388 4.016023544471897 12.022900086633003 16.91476533134238 0 0 0
2 444 1 0.6388 12.755309292944148 4.184626304592856 8.552983807832241 0 0 0
3 444 1 0.6388 3.944783299353089 12.345666313887445 8.644113107214267 0 0 0
4 444 1 0.6388 15.892362476038485 11.884312467527497 20.651874598897397 0 0 -1
5 444 1 0.6388 11.284556609927911 20.029786694821958 16.93650275461033 0 -1 0
6 444 1 0.6388 8.461355952942311 4.1161620675833746 12.468321670695369 0 0 0
7 444 1 0.6388 3.712528213271541 16.29278292979963 12.927376475909666 0 0 0
8 444 1 0.6388 15.621381794850809 20.32621883361258 13.101388275897701 0 -1 0
9 444 1 0.6388 4.093292375897529 8.116905434509398 12.533082897720359 0 0 0
10 444 1 0.6388 11.765536326532951 15.755289863214188 20.58654367995202 0 0 -1
11 444 1 0.6388 8.322126340926818 12.469464889900234 4.904669272066513 0 0 0
12 444 1 0.6388 12.430138492441369 8.481660033609403 4.839205542248286 0 0 0
13 444 2 -0.3238 4.542586213985454 9.310020464599448 13.96310652246166 0 0 0
14 444 3 0.3212 3.8254068638419785 10.205956870647752 14.665397617894962 0 0 0
15 444 2 -0.3238 4.4832363501077115 10.647055569861804 15.757640890476683 0 0 0
16 444 3 -0.06320000000000001 5.688613533845443 10.06558692282431 15.709520014073654 0 0 0
17 444 3 -0.06320000000000001 5.732912990760091 9.265892044077704 14.601628456878666 0 0 0
18 444 4 0.1043 6.501352179868606 10.263980834644086 16.397241490230364 0 0 0
19 444 4 0.1043 6.593352308781556 8.694716714982176 14.279138680678033 0 0 0
20 444 5 -0.4691 18.90453073623859 10.884035631016554 14.116537433826117 0 0 0
21 444 4 0.1313 19.150029611682367 11.948792673816838 13.94859502339236 0 0 0
22 444 4 0.1313 18.05019743164354 10.81827149957956 14.810012558678304 0 0 0
23 444 4 0.1313 18.62939324250345 10.443842577772706 13.137254922465482 0 0 0
24 444 2 -0.3238 14.512794168973919 19.898833986020644 11.587810380014192 0 0 0
25 444 3 0.3212 14.829021343779104 4.196793890322102 10.738547074292047 0 0 0
26 444 2 -0.3238 13.055440088444733 20.09361187619026 9.87248802132529 0 0 0
27 444 3 -0.06320000000000001 13.194574195966215 18.793898524581703 10.192607952174443 0 0 0
28 444 3 -0.06320000000000001 14.10713489332382 18.671775619652855 11.212571424502682 0 0 0
29 444 4 0.1043 12.640725076543877 17.985683129789198 9.733128555282871 0 0 0
30 444 4 0.1043 14.42374227165438 17.746448365716756 11.677288557690531 0 0 0
31 444 5 -0.4691 15.004544936960833 5.665225211261712 10.787789834343268 0 0 0
32 444 4 0.1313 14.69313032355635 6.033003921774474 11.784184950748697 0 0 0
33 444 4 0.1313 14.397050229604798 6.169080004998152 10.019959634478806 0 0 0
34 444 4 0.1313 16.068842382691503 5.912316290423297 10.607348839171543 0 0 0
35 444 2 -0.3238 19.781117152182436 13.433132417222296 10.094675464266984 0 0 0
36 444 3 0.3212 3.834150713509582 14.683464103890294 10.44657641013501 0 0 0
37 444 2 -0.3238 19.4879812956181 15.07891998316735 11.576667294250136 0 0 0
38 444 3 -0.06320000000000001 18.666984085767766 14.058772636335753 11.883562630939943 0 0 0
39 444 3 -0.06320000000000001 18.842014210212813 13.05638683187306 10.976949121242484 0 0 0
40 444 4 0.1043 18.033115518933887 14.007445993869716 12.752129669325939 0 0 0
41 444 4 0.1043 18.328368603503353 12.102851045071995 10.96562940275804 0 0 0
42 444 5 -0.4691 4.532487612959495 15.595258684286428 9.508900726951616 0 0 0
43 444 4 0.1313 4.004342079265583 15.591937288520178 8.537107228234316 0 0 0
44 444 4 0.1313 5.56682495656053 15.238818295711024 9.336452517236943 0 0 0
45 444 4 0.1313 4.511570152684248 16.634753301128736 9.887182077915604 0 0 0
46 444 2 -0.3238 9.340833209964604 4.348597214275819 10.82782519067514 0 1 0
47 444 3 0.3212 10.623946109324452 4.641767294550836 10.541958771006396 0 0 0
48 444 2 -0.3238 10.995178878283596 4.229071315855625 9.314378797436682 0 1 0
49 444 3 -0.06320000000000001 8.917282628533316 20.22595690553478 8.799160132322136 0 0 0
50 444 3 -0.06320000000000001 7.904896470047008 20.32715774005362 9.709817296557894 0 0 0
51 444 4 0.1043 8.838173705769632 19.67556541515197 7.878426777022134 0 0 0
52 444 4 0.1043 6.920882496541314 19.883173754400307 9.619429161379317 0 0 0
53 444 5 -0.4691 11.557616756395557 5.251494641121835 11.505030264944974 0 0 0
54 444 4 0.1313 12.29092299448973 5.861108221482121 10.952212275537928 0 0 0
55 444 4 0.1313 12.066016332837654 4.459577946601924 12.088140146754698 0 0 0
56 444 4 0.1313 11.006486721109 5.93402531463958 12.17543739172586 0 0 0
57 444 2 -0.3238 20.101129851706766 10.596032086568178 9.331124522733974 -1 0 0
58 444 3 0.3212 4.343107976466404 10.19155098576538 10.507780699205002 0 0 0
59 444 2 -0.3238 20.242211132898873 8.950944647226411 10.846241989459939 -1 0 0
60 444 3 -0.06320000000000001 19.462706185957558 8.540753593712083 9.826192630521172 0 0 0
61 444 3 -0.06320000000000001 19.37675015534926 9.550905738250009 8.894524066844498 0 0 0
62 444 4 0.1043 18.90921190021571 7.610468450841554 9.808325834148917 0 0 0
63 444 4 0.1043 18.757963624931413 9.553222096792647 8.007035215354538 0 0 0
64 444 5 -0.4691 5.120949667178643 11.067255649476317 11.420896324054624 0 0 0
65 444 4 0.1313 4.485761117546569 11.39279555039884 12.256070963274931 0 0 0
66 444 4 0.1313 5.463364557845245 11.986438230565128 10.916829454707184 1 0 0
67 444 4 0.1313 5.996094819151629 10.512502067045114 11.812870179261257 0 0 0
68 444 2 -0.3238 15.098822551732379 13.561210635692227 20.38100834830325 0 0 0
69 444 3 0.3212 14.554578155589823 15.0816446911655 4.487499663376121 0 0 0
70 444 2 -0.3238 13.542833586496933 15.164986713485956 20.437246061471527 0 0 0
71 444 3 -0.06320000000000001 14.340454291530065 15.36501478544178 19.36947957399447 0 0 0
72 444 3 -0.06320000000000001 15.297726551779832 14.386598508643786 19.33953464104957 0 0 0
73 444 4 0.1043 14.139022485426182 16.052185352563207 18.56111497706756 0 0 0
74 444 4 0.1043 15.997011890435978 14.21173080464554 18.532820500014875 0 0 0
75 444 5 -0.4691 13.830227273075646 14.340167267577375 5.547221587800722 0 0 0
76 444 4 0.1313 14.525588439008892 13.771973703139281 6.188749422093109 0 0 0
77 444 4 0.1313 13.15532801227264 13.61175819942003 5.070852228344793 0 0 0
78 444 4 0.1313 13.243723360705172 15.042692738089873 6.1709451265894 0 0 0
79 444 2 -0.3238 13.025639253471248 8.913458061952223 20.810068790126728 0 0 0
80 444 3 0.3212 14.601599244719779 10.579539401436623 4.791226383246093 0 0 0
81 444 2 -0.3238 14.492806875867249 10.605334166025754 20.580780791394968 0 0 0
82 444 3 -0.06320000000000001 13.616805402686229 10.642077669910357 19.562297467668664 0 0 0
83 444 3 -0.06320000000000001 12.714138633284708 9.624680428942067 19.711714851840885 0 0 0
84 444 4 0.1043 13.6207710385108 11.386685392470705 18.77548397417572 0 0 0
85 444 4 0.1043 11.84381696410053 9.451507671133628 19.09311996912819 0 0 0
86 444 5 -0.4691 15.203371512628785 10.259052715460523 6.1039497701408125 0 0 0
87 444 4 0.1313 14.425171474700566 9.872114166259312 6.789391203603977 0 0 0
88 444 4 0.1313 15.62329459876699 11.176956176034256 6.557981855810091 0 0 0
89 444 4 0.1313 16.007575871934993 9.512424749657168 5.970766813486883 0 0 0
90 444 2 -0.3238 11.00381082993069 4.041857763245036 15.6270810611503 0 0 0
91 444 3 0.3212 9.397668712448588 20.01102558991998 14.590519496267408 0 -1 0
92 444 2 -0.3238 9.613766323836899 4.358429738091277 13.90647746118371 0 0 0
93 444 3 -0.06320000000000001 9.795705547429513 5.532951894824074 14.529695526492862 0 0 0
94 444 3 -0.06320000000000001 10.644470919816087 5.338367940877218 15.57953326907669 0 0 0
95 444 4 0.1043 9.331602622655616 6.468081895069815 14.240748959643946 0 0 0
96 444 4 0.1043 10.972172620269506 6.0993577509558214 16.270243251089735 0 0 0
97 444 5 -0.4691 9.409659642372098 18.573449279563697 14.244555491778158 0 -1 0
98 444 4 0.1313 9.666737012041658 18.461974159942184 13.173067515977358 0 0 0
99 444 4 0.1313 8.405892239329544 18.145961213760707 14.435133785354424 0 -1 0
100 444 4 0.1313 10.143449405729097 18.020302000087618 14.839972321948663 0 0 0
101 444 2 -0.3238 4.158159698878982 15.204517710323067 14.37850583368237 0 0 0
102 444 3 0.3212 19.73549999726976 14.433423922440074 15.23874687135887 -1 0 0
103 444 2 -0.3238 4.235385027896894 13.542022430741625 15.866427695036062 0 0 0
104 444 3 -0.06320000000000001 5.472429228390454 13.764059918146245 15.389366654168319 0 0 0
105 444 3 -0.06320000000000001 5.428846478632289 14.786796687136732 14.49511469494019 0 0 0
106 444 4 0.1043 6.342462709099797 13.164692049846987 15.629042167649505 0 0 0
107 444 4 0.1043 6.257675868173502 15.132297768213693 13.893745146707447 0 0 0
108 444 5 -0.4691 18.26878427742155 14.499243396383228 15.448126958609501 0 0 0
109 444 4 0.1313 17.839579933088228 13.478753362965914 15.408272884139 0 0 0
110 444 4 0.1313 17.78454757116449 15.129909001266356 14.681737497487996 0 0 0
111 444 4 0.1313 18.0683406630102 14.934793541811548 16.44589285725469 0 0 0
112 444 2 -0.3238 13.975443346082624 3.7207144927068434 16.26222886604504 0 0 0
113 444 3 0.3212 13.448351591178671 19.876731355719944 15.04627940015979 0 -1 0
114 444 2 -0.3238 15.587268648660135 3.8661308976667366 14.718816765300422 0 0 0
115 444 3 -0.06320000000000001 15.976710534297357 4.527957546003748 15.827974354122361 0 0 0
116 444 3 -0.06320000000000001 14.994403114445884 4.427892513802944 16.778505673132866 0 0 0
117 444 4 0.1043 16.91602264046105 5.056816806085425 15.935114585316876 0 0 0
118 444 4 0.1043 15.010601499966796 4.866745585229255 17.767552418442527 0 0 0
119 444 5 -0.4691 12.801895472115216 18.815340212041946 14.262972911573112 0 -1 0
120 444 4 0.1313 13.58282463894842 18.206325370283768 13.777948376345972 0 0 0
121 444 4 0.1313 12.12175816986312 19.25779240364945 13.5111672601088 0 -1 0
122 444 4 0.1313 12.280593353167276 18.133961982524664 14.956161021105652 0 -1 0
123 444 2 -0.3238 18.870674503127344 12.759588832180604 7.381061575580361 0 0 0
124 444 3 0.3212 18.415688470892505 12.255381279613083 6.214424898682179 0 0 0
125 444 2 -0.3238 17.38821572258213 12.97107368873501 5.70707972406018 0 0 0
126 444 3 -0.06320000000000001 17.217909930796836 13.982405675506747 6.572132648175685 0 0 0
127 444 3 -0.06320000000000001 18.096937712259734 13.84023906520424 7.597583789941734 0 0 0
128 444 4 0.1043 16.533919390847316 14.809093473207867 6.447714542368386 0 0 0
129 444 4 0.1043 18.17016797489648 14.510395627851512 8.440496993924087 0 0 0
130 444 5 -0.4691 19.01959781117532 11.092403777882085 5.527489541048065 0 0 0
131 444 4 0.1313 18.288935396833935 10.262688679705594 5.496006981387941 0 0 0
132 444 4 0.1313 19.935529148692343 10.767688219213206 6.061627699312852 0 0 0
133 444 4 0.1313 19.289379223881358 11.383243454089136 4.494260327667472 0 0 0
134 444 2 -0.3238 11.878802926020416 18.027489649737525 5.38240577755265 0 0 0
135 444 3 0.3212 12.439957258747233 18.525589645513364 6.5054923066038395 0 0 0
136 444 2 -0.3238 11.721737966537873 19.54520663507888 7.040201059587202 0 0 0
137 444 3 -0.06320000000000001 10.729338965727598 19.735712073237732 6.154404113491087 0 0 0
138 444 3 -0.06320000000000001 10.799816459230426 18.79483097462665 5.17531632692845 0 0 0
139 444 4 0.1043 10.002500754843483 20.53039494296125 6.20367501309057 0 0 0
140 444 4 0.1043 9.612495024580554 17.686454371046864 20.88271078095139 0 0 -1
141 444 5 -0.4691 13.743190403890654 18.05666471692151 7.026243732466859 0 0 0
142 444 4 0.1313 14.232420458939945 18.86629727972704 7.602667133881728 0 0 0
143 444 4 0.1313 14.402999567590744 17.786158960372433 6.177774234422172 0 0 0
144 444 4 0.1313 13.587008372747338 17.16616765439801 7.664411808684441 0 0 0
145 444 2 -0.3238 5.737324735328115 12.565576764724412 8.009940581231204 0 0 0
146 444 3 0.3212 6.194098635016659 13.077030231658451 6.8496048822964175 0 0 0
147 444 2 -0.3238 7.460019590461398 12.693023150420249 6.570192852322977 0 0 0
148 444 3 -0.06320000000000001 7.836710930157256 11.9648922429327 7.63168457820649 0 0 0
149 444 3 -0.06320000000000001 6.787855046520988 11.876553835861415 8.499485746858687 0 0 0
150 444 4 0.1043 8.735089313928016 11.36682267143701 7.685907593380737 0 0 0
151 444 4 0.1043 6.759103050170335 11.191969710878627 9.329715852539211 0 0 0
152 444 5 -0.4691 5.3211350859345234 13.769433808099855 5.883825662295536 0 0 0
153 444 4 0.1313 4.49950322682828 14.283913427155873 6.415603403941307 0 0 0
154 444 4 0.1313 4.905660530578024 13.027757356260196 5.1783943429004315 0 0 0
155 444 4 0.1313 5.90421078035663 14.537584054016222 5.343933408208121 0 0 0
156 444 2 -0.3238 18.625421696706255 11.654909756987832 17.66488074129531 0 0 0
157 444 3 0.3212 18.049729852528714 12.24683423572781 18.72352392909936 0 0 0
158 444 2 -0.3238 17.015302636785087 11.537470955231361 19.206096355622467 0 0 0
159 444 3 -0.06320000000000001 16.93542230134932 10.449167961900436 18.423114629348266 0 0 0
160 444 3 -0.06320000000000001 17.93643397783964 10.510218431919187 17.491230573578495 0 0 0
161 444 4 0.1043 16.236369559568363 9.6339310941777 18.564018169268255 0 0 0
162 444 4 0.1043 18.211186897541623 9.71415944727573 16.812146638273433 0 0 0
163 444 5 -0.4691 18.63810563749279 13.41455124786864 19.41738605761505 0 0 0
164 444 4 0.1313 17.927862907372702 13.827793762594197 20.159442614444636 0 0 0
165 444 4 0.1313 18.903459963272233 14.194240601783143 18.67756196096692 0 0 0
166 444 4 0.1313 19.550131517289454 13.093103628130159 19.95076698408917 0 0 0
167 444 2 -0.3238 11.043650199135655 18.266963000969636 17.528454564595787 0 0 0
168 444 3 0.3212 11.80041292488745 17.73019538191213 18.499622958893823 0 0 0
169 444 2 -0.3238 11.28174525768794 16.594214537535954 18.98838390798374 0 0 0
170 444 3 -0.06320000000000001 10.143246804466889 16.399747110831715 18.29907744388973 0 0 0
171 444 3 -0.06320000000000001 9.98405545507272 17.441639925937874 17.41807294933022 0 0 0
172 444 4 0.1043 9.41048227975021 15.633653302804792 18.52203432656886 0 0 0
173 444 4 0.1043 9.086585104494578 17.652633750644906 16.853099497640017 0 0 0
174 444 5 -0.4691 12.954569036884884 18.43332291724085 19.116045258874983 0 0 0
175 444 4 0.1313 13.313486496511867 17.887735360919827 20.009174139443306 0 0 0
176 444 4 0.1313 12.661508602988768 19.4434830544748 19.449174922532737 0 0 0
177 444 4 0.1313 13.773223223140349 18.512440513118083 18.37451252791506 0 0 0
178 444 2 -0.3238 6.652139549226087 11.916235064892131 20.025359585307573 0 0 0
179 444 3 0.3212 5.7055431369112055 11.361698750080206 19.23730083031463 0 0 0
180 444 2 -0.3238 5.261412447904268 12.210966035274266 18.294110109925377 0 0 0
181 444 3 -0.06320000000000001 5.898070300353793 13.366604166136515 18.535336333863583 0 0 0
182 444 3 -0.06320000000000001 6.749821278438791 13.183807221105123 19.57762620121941 0 0 0
183 444 4 0.1043 5.737648741498505 14.295893173772125 18.005657397202544 0 0 0
184 444 4 0.1043 7.386112472634221 13.94814597902797 20.00132875572364 0 0 0
185 444 5 -0.4691 5.147229036679304 10.00578176661509 19.41421430176682 0 0 0
186 444 4 0.1313 4.072762012239805 10.013542554303335 19.146895919691087 0 0 0
187 444 4 0.1313 5.237704847276713 9.699069697785639 20.47530727006216 0 0 0
188 444 4 0.1313 5.671079769454976 9.303772866231865 18.73785313194343 0 0 0
189 444 2 -0.3238 11.824000608223265 6.072447589454382 20.120713440389363 0 0 0
190 444 3 0.3212 12.28989477360981 5.797876735302613 18.88493687397352 0 0 0
191 444 2 -0.3238 11.922324387956015 4.568997627735939 18.457741665414247 0 0 0
192 444 3 -0.06320000000000001 11.160616340425044 4.0784536736563926 19.44823292093 0 0 0
193 444 3 -0.06320000000000001 11.120087360190544 4.982414343585719 20.46428898762293 0 0 0
194 444 4 0.1043 9.714796101504247 19.654523372180517 19.43185387189069 0 -1 0
195 444 4 0.1043 11.093351803054398 5.884601543365229 4.8403670057000685 0 0 1
196 444 5 -0.4691 12.990051011329978 6.792343478748341 18.04129441137403 0 0 0
197 444 4 0.1313 12.297969157306547 7.6254458706664945 17.82987926523352 0 0 0
198 444 4 0.1313 13.267184960940746 6.357372454155543 17.065418896349136 0 0 0
199 444 4 0.1313 13.891836682979992 7.162077788343652 18.568697709285754 0 0 0
200 444 2 -0.3238 13.243247117056967 5.859294331672534 7.807424769400834 0 0 0
201 444 3 0.3212 12.466051756371119 6.841349882648889 7.300408606713468 0 0 0
202 444 2 -0.3238 13.10919358322273 7.58975977343817 6.377699701400203 0 0 0
203 444 3 -0.06320000000000001 14.356157530055732 7.081764308076662 6.3459367854049304 0 0 0
204 444 3 -0.06320000000000001 14.440842242837249 6.032820201413484 7.2243621395225395 0 0 0
205 444 4 0.1043 15.093570134025661 7.323759447145683 5.591634218187569 0 0 0
206 444 4 0.1043 15.263565074254238 5.332108900142935 7.298773272580824 0 0 0
207 444 5 -0.4691 11.014289125279774 6.949932278451245 7.574855324068664 0 0 0
208 444 4 0.1313 10.459277794394474 6.1448798270074265 7.062633305816247 0 0 0
209 444 4 0.1313 10.635473160662395 7.93549539824986 7.246579378704862 0 0 0
210 444 4 0.1313 10.846294287921115 6.87116894535807 8.666313654020453 0 0 0
211 444 2 -0.3238 16.974911952699525 19.027599892237813 13.426173965058354 0 0 0
212 444 3 0.3212 17.766764182628172 18.22939637350603 12.674192321720355 0 0 0
213 444 2 -0.3238 18.595741728024073 17.470295110056387 13.417841493912869 0 0 0
214 444 3 -0.06320000000000001 18.295332114460194 17.779863487029615 14.68970880354052 0 0 0
215 444 3 -0.06320000000000001 17.31440025140362 18.727301175305612 14.6941350971973 0 0 0
216 444 4 0.1043 18.783454122743564 17.365259474371538 15.56253196593197 0 0 0
217 444 4 0.1043 16.88450748079634 19.172107198287975 15.578522365720593 0 0 0
218 444 5 -0.4691 17.759968558312963 18.19066423982336 11.194787985683977 0 0 0
219 444 4 0.1313 16.92005625706672 18.78856461944336 10.794073547086512 0 0 0
220 444 4 0.1313 17.64462054090571 17.14050984016461 10.85937580821829 0 0 0
221 444 4 0.1313 18.72128376443024 18.59304598776804 10.817735685769625 0 0 0
222 444 2 -0.3238 17.28923561181973 5.529716409757766 12.976016641531215 0 0 0
223 444 3 0.3212 18.468030852383855 5.950646287924384 12.498742374210861 0 0 0
224 444 2 -0.3238 18.750376469021568 7.221888978715768 12.848471997269817 0 0 0
225 444 3 -0.06320000000000001 17.666723883893614 7.637582611406182 13.526581084975097 0 0 0
226 444 3 -0.06320000000000001 16.7669309508496 6.608503548592239 13.589646890627277 0 0 0
227 444 4 0.1043 17.545314822199604 8.599012029237734 13.993323698099092 0 0 0
228 444 4 0.1043 15.813743095270965 6.630942147061498 14.10241015882911 0 0 0
229 444 5 -0.4691 19.351553440013966 5.095149473331707 11.68131955385344 0 0 0
230 444 4 0.1313 19.98265804410953 5.718736884224183 11.022461947961578 0 0 0
231 444 4 0.1313 18.72851467827277 4.451462551066177 11.035012690507159 0 0 0
232 444 4 0.1313 19.98414070783338 4.474347533494554 12.345728900930428 0 0 0
233 444 2 -0.3238 5.296021928599391 17.23247133013543 12.479581098668662 0 0 0
234 444 3 0.3212 5.6339278073282335 18.439741855266686 12.95263963514358 0 0 0
235 444 2 -0.3238 6.781644402745298 18.90585466557202 12.427762724104413 0 0 0
236 444 3 -0.06320000000000001 7.248457397445945 17.889220177085164 11.680264664762039 0 0 0
237 444 3 -0.06320000000000001 6.355759943768778 16.85173256138666 11.741861320497106 0 0 0
238 444 4 0.1043 8.179795986782672 17.90107452762643 11.127674309862666 0 0 0
239 444 4 0.1043 6.495688347509006 15.87026093264156 11.31445156193449 0 0 0
240 444 5 -0.4691 5.030631285395711 18.979452108605436 14.18236871356724 0 0 0
241 444 4 0.1313 4.2287657297049535 19.700623169601528 13.932380801662315 0 0 0
242 444 4 0.1313 5.826236910647616 19.417007822177165 14.808710728433006 0 0 0
243 444 4 0.1313 4.626356660571391 18.14545589958893 14.781708788642096 0 0 0
244 444 2 -0.3238 5.398049919178753 6.803085751256592 12.698082169203262 0 0 0
245 444 3 0.3212 6.358393937673017 6.184338224079234 11.985300184605984 0 0 0
246 444 2 -0.3238 7.082630143948086 5.34018039209284 12.744735343875618 0 0 0
247 444 3 -0.06320000000000001 6.588115376111741 5.483391604857934 13.984632345469668 0 0 0
248 444 3 -0.06320000000000001 5.521565152259334 6.3145813741938035 13.942306914653239 0 0 0
249 444 4 0.1043 6.990449789418443 5.027901026437987 14.87697822479435 0 0 0
250 444 4 0.1043 4.904748574003177 6.603195499091899 14.785056908058287 0 0 0
251 444 5 -0.4691 6.5771768837505755 6.385427593206808 10.53639111046423 0 0 0
252 444 4 0.1313 7.657302085219807 6.544792129588697 10.346434584103557 0 0 0
253 444 4 0.1313 6.01538083829863 7.2727443231376485 10.184318214274391 0 0 0
254 444 4 0.1313 6.23045224745705 5.486883568936028 9.989867784082561 0 0 0
255 444 2 -0.3238 10.710792168278582 14.223049277525739 20.69214589081852 0 0 0
256 444 3 0.3212 10.269876239627674 14.762377805140808 4.968181998432637 0 0 0
257 444 2 -0.3238 9.788789810423337 13.57680770994061 4.551525634795325 0 0 1
258 444 3 -0.06320000000000001 9.969192931224715 12.279296350763472 19.983440424100678 0 0 0
259 444 3 -0.06320000000000001 10.844389767111515 13.29240575486029 19.733290806201953 0 0 0
260 444 4 0.1043 9.802392129966163 11.409395697812146 19.360021829911457 0 0 0
261 444 4 0.1043 11.526932208490342 13.363416089271507 18.895053161408388 0 0 0
262 444 5 -0.4691 9.693840685740506 15.533692355372928 6.090685013203581 0 0 0
263 444 4 0.1313 9.137555429384296 14.856747176913057 6.768940078044665 0 0 0
264 444 4 0.1313 9.007118431425033 16.304163053975934 5.689161749262566 0 0 0
265 444 4 0.1313 10.508987497986787 16.02029032536499 6.661381793096878 0 0 0
266 444 2 -0.3238 10.655044969134586 9.134703872604874 4.958241361049009 0 0 1
267 444 3 0.3212 10.277429718274407 10.368798351091687 5.327019053193325 0 0 0
268 444 2 -0.3238 9.056346950577474 10.7117721981 4.85726655775597 0 0 1
269 444 3 -0.06320000000000001 8.104740780241364 8.592069786189084 20.78073909090827 0 0 0
270 444 3 -0.06320000000000001 9.082736419051496 7.632165776364305 20.83489528285847 0 0 0
271 444 4 0.1043 7.183052867336674 8.501722679410275 20.23908792094098 0 0 0
272 444 4 0.1043 9.061656467942129 6.691737767736512 20.302878169256786 0 0 0
273 444 5 -0.4691 11.185149908376264 11.289115592705942 6.048951871777236 0 0 0
274 444 4 0.1313 10.616918310576235 12.080810452456607 6.570050846969179 0 0 0
275 444 4 0.1313 11.869629360966368 11.758844426028652 5.325092373795131 0 0 0
276 444 4 0.1313 11.776808019085877 10.71925778199024 6.7927969663870895 0 0 0

Velocities

1 0.0036254582053304348 0.0021455060443094824 0.0014083479250386135
2 0.00020077838146145198 0.002872164723037498 -3.964846667601134e-05
3 -0.0011680581650848764 -0.0002503033943956689 0.00216852013866403
4 -0.004785972418200799 0.00022917283174156785 0.003546474029842379
5 0.002762630048927628 0.0007308481684257905 -0.0028000245221592463
6 -0.003189033617165771 0.0016005023315302865 -0.00242988688809509
7 -0.0009200445845896957 0.001643985665927393 0.0036797347487603042
8 0.0009869756242680034 0.0019967801483491508 0.0023721731768431248
9 0.0011279706442216847 0.0020083388475727226 -6.992528842263139e-05
10 0.0013659060552612373 -0.0010250273902291725 -0.0008490935783907605
11 -0.0011693800043785162 0.0008798498665053158 0.0024907179916025322
12 0.0029464943018811186 0.0023560985737869173 0.0032609763942358224
13 0.00627346627473862 0.0014523214820622323 -0.005625564525670861
14 0.012092724160247965 0.0016128691215888569 -0.0015074762026144875
15 -0.0023738058494639017 0.003803382761082736 0.00336997145328295
16 0.0009441593702895936 -0.003980781173907673 -0.00417844867586148
17 -0.0025493467910519927 -0.00308915294290014 -0.004064151833958011
18 -0.018681921061464893 -0.007894532958666605 -0.0037971755462510577
19 -0.007420830361697377 0.03171636567837368 0.02407541285691171
20 0.00043775351800101256 0.0011774996296050235 6.70452584937056e-06
21 0.008267283954108143 0.005974672052094741 -0.011787983950939142
22 0.00859768229550599 0.009023805291122768 -0.010012439220480316
23 -0.013718058582882253 -0.005677815594966635 0.011653504153047861
24 0.0022927229512069492 2.4943087073993508e-05 -0.0013871441752116428
25 0.0014530934409801323 -0.003108698261439739 -0.003910409077606375
26 -0.00011881726473528114 0.0010763636518516416 -0.005284906396314959
27 0.0029949766652900855 -0.003986365749827729 0.004323979811572555
28 -0.005551743933040366 -0.008440335379399038 0.006813601776954526
29 0.03584720311138739 -0.01827639184250281 -0.032636060781535706
30 0.036772517072849446 -0.0074456874191097915 0.005527270083506057
31 0.008718949111791467 -0.0015630822025838153 -0.0030043058989670567
32 -0.02044161737024865 0.006475992282190213 -0.016651952755554214
33 0.009086238641128423 0.005793247676199052 0.017541423488754766
34 -0.0014960036749351654 0.012021052334936767 -0.0024636505409529864
35 0.0012019488920702115 0.0009116175558592613 -0.0025667150656217357
36 0.0006871282930674668 0.00963838386091091 -0.0024610781425852698
37 0.00317471590597976 0.001973388433302111 -4.4986604589581794e-05
38 -0.00556822519689382 -0.0011434428196693905 0.0015797178389510105
39 -0.0045654955558742695 -0.006299992199227654 0.004724862637084906
40 0.03357082448493081 0.005802836647835814 0.00020707978174874933
41 -0.016569568673834426 0.01899560868214902 -0.004234017591494353
42 -0.0002702479426446965 -0.0019098727819130458 -0.00099095886553625
43 0.022774100213634234 -0.019512839179622866 0.002780556432621598
44 -0.0065289085145609025 0.018245079681639447 -0.01438841500937577
45 0.011823987519857361 0.009876860717894599 -0.009237420309288025
46 0.004696926584936143 0.0012772884458006088 -0.004713929813288884
47 -0.001513326763970191 -0.002907859616490753 -0.006454022165900012
48 -0.003852187963263684 -0.002178599985120175 -0.000712706148240708
49 -0.00451882602812967 -0.0064802420171595244 0.00655190334143444
50 0.0003865610697637619 -0.0025941612746951093 0.0032209348995336667
51 0.0018209493494332778 -0.004176216821041048 0.006837386708537856
52 -0.0026938364412882883 -0.011963792292136842 -0.020278099656414236
53 0.0037244453374179584 0.00266832249617302 -0.0009156518676030358
54 -0.012393126822322372 0.016594839765190453 -0.0020020311260218054
55 -0.00821552390215773 -0.01756352935846798 0.029148614818451313
56 0.006432385635875058 -0.0026986333712036583 0.026065211416725
57 -0.0030749587853141536 -0.004021457314991586 -0.007736448414260689
58 -0.000643049166685904 0.0033967401303636527 -0.008988607022810942
59 0.009582393000829003 -0.00433045123244119 0.005306947139350515
60 -0.004619371800693263 -0.004822852429839961 -0.004167913801009331
61 0.002406275753739518 0.00072823448090973 0.003229791014032839
62 0.004099519330886002 -0.011053336871482876 0.008966015280503259
63 -0.008885163190644243 -0.00017603170883303485 0.013743559770430411
64 -0.0009248724112634259 0.0025339768774846525 -0.0011071486366939604
65 0.020621660116999282 -0.03053401616506379 0.0025961752793987325
66 0.002876017915336264 -0.028650590446458644 0.011999107273881874
67 0.001007273776954543 -0.02079627503744479 0.0277282439514793
68 0.003914020201864862 -0.00027973260427287245 0.003409679695031544
69 -0.0062944731070798095 -0.007734290324411117 -0.0017727874150567596
70 -0.0004830067009992434 -0.0008879701690773054 -0.005125740883710888
71 0.0008907883727788833 -0.004081226774031165 -0.005333987046490936
72 -0.0009970436009678534 0.000905390762211314 0.005793448535999931
73 -0.010467587497213647 -0.0030669560395191714 -0.016403822756789498
74 0.011429839544080915 0.02388695271661645 0.0020345203705604367
75 0.0002809338773268649 0.004766651568092176 0.0016596382613303067
76 -0.012159977585476591 -6.187876026964102e-06 -0.01911994225427334
77 -0.011566090575131666 0.002157472709398573 -0.02394138048211246
78 -0.035798354209488875 -0.012554596084705383 0.007684201106060449
79 -1.353274316822466e-05 0.0034786790097501006 0.000656642390261599
80 0.0016857224965773866 0.008119729577645778 0.0030035192337909303
81 -0.0025419812594574777 -0.0034905064822541446 0.0016497918174328563
82 0.0002566818132080289 -0.006194530648468701 -0.009674033787851215
83 -0.013568954840236139 -0.005715123372643 -0.003102395762121089
84 0.014247278721451836 -0.0030489793008011824 0.006467226789731384
85 0.026066873078198525 0.008229112512225512 -0.002010995312160783
86 -0.0017393806271233964 -0.0019148364807279614 -0.002668711016967525
87 0.010961935457995101 -0.0038016202159904303 0.006665662193787321
88 -0.015128547184682335 0.0004100042436518588 -0.013698778925107532
89 -0.004058044441182018 -0.014589618698781087 0.00447145426426694
90 0.00011040605396671802 0.00633323044491864 -0.004731284400792239
91 -0.004041616099282382 0.001105134452910712 0.008719597393731422
92 0.0010578677482014018 0.0014148512203862598 0.004282789695717895
93 0.0006115964549752574 0.008451398007929423 0.0060458330548819
94 -0.007510742908463677 -0.0021790570998330167 0.0022139804666204722
95 0.007707471469837674 -0.003988039057500483 -0.015484124190604768
96 -0.013100321799383145 -0.0007062744378072957 -0.005162224042355957
97 0.009258441413643561 0.0001102552943240798 0.004359082837421344