Created on Mon Feb 10 22:12:21 2025 

         276 atoms
         312 bonds
         576 angles
         624 dihedrals
         360 impropers

           5 atom types
           6 bond types
           10 angle types
           2 dihedral types
           1 improper types
           0.000000  25.292000 xlo xhi
           0.000000  25.289789 ylo yhi
           0.000000  25.381566 zlo zhi
          -0.403023  -0.130241  -0.071192 xy xz yz

Atoms

       1      444        1     0.63880   -0.08238   12.88682   19.23999
       2      444        1     0.63880   12.83075    0.27752    6.54921
       3      444        1     0.63880    0.08303   12.85034    6.54946
       4      444        1     0.63880   19.02362   12.90751    0.23224
       5      444        1     0.63880   12.86618    0.16985   19.24050
       6      444        1     0.63880    6.51451    0.22727   12.92302
       7      444        1     0.63880   -0.15511   19.17304   12.86084
       8      444        1     0.63880   19.15024    0.16577   12.85018
       9      444        1     0.63880    0.10823    6.53916   12.90170
      10      444        1     0.63880   12.61734   19.21990    0.21067
      11      444        1     0.63880    6.36734   12.84626    0.15940
      12      444        1     0.63880   12.75702    6.56374    0.17006
      13      444        2    -0.32380    0.68044    8.52360   15.71373
      14      444        3     0.32120    0.01631    9.54652   16.27161
      15      444        2    -0.32380    0.57856    9.96538   17.42292
      16      444        3    -0.06320    1.64372    9.15664   17.59450
      17      444        3    -0.06320    1.71134    8.27193   16.53939
      18      444        4     0.10430    2.31231    9.28052   18.50976
      19      444        4     0.10430    2.55214    7.50325   16.49320
      20      444        5    -0.46910   24.07581   10.12023   15.68251
      21      444        4     0.13130   24.26333   11.20698   15.39392
      22      444        4     0.13130   23.23094   10.07004   16.44599
      23      444        4     0.13130   23.78558    9.52524   14.75456
      24      444        2    -0.32380   16.10560   25.22576   10.74554
      25      444        3     0.32120   16.16027    0.26825    9.49372
      26      444        2    -0.32380   14.56885   25.03708    9.12873
      27      444        3    -0.06320   14.15912   24.33808   10.20669
      28      444        3    -0.06320   15.10175   24.45844   11.20571
      29      444        4     0.10430   13.16845   23.77496   10.17826
      30      444        4     0.10430   14.93759   23.94300   12.20929
      31      444        5    -0.46910   17.01812    1.09718    8.61526
      32      444        4     0.13130   16.47761    2.06877    8.36348
      33      444        4     0.13130   17.24135    0.52656    7.65407
      34      444        4     0.13130   17.99541    1.33441    9.15234
      35      444        2    -0.32380   24.62393   15.19277    8.94979
      36      444        3     0.32120   -0.02287   16.20344    9.55058
      37      444        2    -0.32380   24.48110   16.89096   10.40137
      38      444        3    -0.06320   23.28101   16.28145   10.32040
      39      444        3    -0.06320   23.36887   15.23138    9.43128
      40      444        4     0.10430   22.40368   16.66488   10.93920
      41      444        4     0.10430   22.45588   14.58024    9.22620
      42      444        5    -0.46910    1.39582   16.52767    9.27341
      43      444        4     0.13130    2.01026   16.38794   10.22369
      44      444        4     0.13130    1.47700   17.60979    8.92416
      45      444        4     0.13130    1.79197   15.83474    8.45968
      46      444        2    -0.32380    7.79949   25.16607    9.84729
      47      444        3     0.32120    9.44384    0.23261    9.48560
      48      444        2    -0.32380    9.41414   24.98375    8.30739
      49      444        3    -0.06320    8.35296   24.24814    7.91930
      50      444        3    -0.06320    7.35528   24.36411    8.86350
      51      444        4     0.10430    8.39187   23.66315    6.94135
      52      444        4     0.10430    6.36468   23.81927    8.71603
      53      444        5    -0.46910   10.30428    1.10353   10.31989
      54      444        4     0.13130   10.52830    2.06865    9.75591
      55      444        4     0.13130   11.28088    0.56320   10.55137
      56      444        4     0.13130    9.76546    1.34914   11.29404
      57      444        2    -0.32380    0.04082    9.74063    8.20129
      58      444        3     0.32120    0.09443    9.45902    9.51149
      59      444        2    -0.32380   -0.17812    8.16091    9.77520
      60      444        3    -0.06320   24.90714    7.60742    8.56704
      61      444        3    -0.06320   25.03404    8.57773    7.59620
      62      444        4     0.10430   24.65664    6.49793    8.48658
      63      444        4     0.10430   24.88518    8.30844    6.49844
      64      444        5    -0.46910    0.37345   10.48567   10.54249
      65      444        4     0.13130    1.34696   10.23076   11.07855
      66      444        4     0.13130   24.81111   10.50884   11.29683
      67      444        4     0.13130    0.46977   11.50700   10.04552
      68      444        2    -0.32380   16.64202   15.38507   24.87495
      69      444        3     0.32120   15.92870   16.21066    0.21321
      70      444        2    -0.32380   15.19625   17.09395   24.85744
      71      444        3    -0.06320   15.69596   16.92976   23.61577
      72      444        3    -0.06320   16.58228   15.87364   23.62364
      73      444        4     0.10430   15.36232   17.61900   22.77133
      74      444        4     0.10430   17.11090   15.56629   22.66168
      75      444        5    -0.46910   15.71816   16.01590    1.66655
      76      444        4     0.13130   14.63437   15.71771    1.85692
      77      444        4     0.13130   15.94743   16.98725    2.21733
      78      444        4     0.13130   16.41044   15.19242    2.04372
      79      444        2    -0.32380   15.55621    8.31890   25.03790
      80      444        3     0.32120   16.10323    9.56290    0.15584
      81      444        2    -0.32380   17.23773    9.79012   25.17851
      82      444        3    -0.06320   17.63135    8.74550   24.42214
      83      444        3    -0.06320   16.59485    7.84114   24.32950
      84      444        4     0.10430   18.68256    8.72473   23.98152
      85      444        4     0.10430   16.72502    6.88512   23.72212
      86      444        5    -0.46910   15.25691   10.40943    1.02871
      87      444        4     0.13130   15.05553   11.40578    0.51195
      88      444        4     0.13130   15.79590   10.59557    2.01580
      89      444        4     0.13130   14.26782    9.87904    1.22948
      90      444        2    -0.32380   10.78481    0.07875   16.55640
      91      444        3     0.32120    9.47420    0.10609   16.27339
      92      444        2    -0.32380    9.22933    0.28150   14.95913
      93      444        3    -0.06320   10.45109    0.37564   14.39617
      94      444        3    -0.06320   11.41020    0.24467   15.37768
      95      444        4     0.10430   10.54967    0.53812   13.27202
      96      444        4     0.10430   12.51594    0.28817   15.10330
      97      444        5    -0.46910    8.42572   -0.01745   17.31277
      98      444        4     0.13130    7.41275   24.32753   17.12647
      99      444        4     0.13130    7.73969    0.89209   17.27038
     100      444        4     0.13130    8.51178   25.21255   18.34072
     101      444        2    -0.32380    0.63929   16.96542   15.41042
     102      444        3     0.32120   -0.07151   16.24220   16.28837
     103      444        2    -0.32380    0.64641   15.24423   16.84194
     104      444        3    -0.06320    1.86502   15.34698   16.27364
     105      444        3    -0.06320    1.86400   16.41035   15.39620
     106      444        4     0.10430    2.68894   14.61102   16.55487
     107      444        4     0.10430    2.81003   16.67120   14.81573
     108      444        5    -0.46910   23.79377   16.51198   16.58178
     109      444        4     0.13130   23.68092   16.80960   17.67674
     110      444        4     0.13130   23.17975   15.57354   16.37796
     111      444        4     0.13130   23.42276   17.36080   15.91729
     112      444        2    -0.32380   15.92547    0.03051   17.52521
     113      444        3     0.32120   16.21628    0.13962   16.22060
     114      444        2    -0.32380   17.54041    0.24093   15.98937
     115      444        3    -0.06320   18.10277    0.20031   17.21429
     116      444        3    -0.06320   17.10985    0.06463   18.16102
     117      444        4     0.10430   19.23510    0.27537   17.32444
     118      444        4     0.10430   17.38104    0.00311   19.26664
     119      444        5    -0.46910   15.17593    0.17065   15.16625
     120      444        4     0.13130   14.89557   24.55470   14.48475
     121      444        4     0.13130   15.28478    1.12529   14.55303
     122      444        4     0.13130   14.14368    0.14527   15.64977
     123      444        2    -0.32380   22.29236   13.09680    4.87681
     124      444        3     0.32120   21.97723   12.89582    3.58895
     125      444        2    -0.32380   20.64740   12.91844    3.36915
     126      444        3    -0.06320   20.10623   13.13732    4.58467
     127      444        3    -0.06320   21.11833   13.25358    5.51338
     128      444        4     0.10430   18.97386   13.19769    4.70219
     129      444        4     0.10430   20.86749   13.45005    6.60809
     130      444        5    -0.46910   22.99648   12.64990    2.54196
     131      444        4     0.13130   22.96549   13.49420    1.77646
     132      444        4     0.13130   22.77721   11.65873    2.02367
     133      444        4     0.13130   24.03037   12.60860    3.02041
     134      444        2    -0.32380   11.80296   21.53465    2.65593
     135      444        3     0.32120   12.45882   22.16438    3.64200
     136      444        2    -0.32380   11.80329   23.25412    4.08948
     137      444        3    -0.06320   10.68485   23.30985    3.33818
     138      444        3    -0.06320   10.68027   22.24812    2.45871
     139      444        4     0.10430    9.93284   24.15180    3.49682
     140      444        4     0.10430    9.80958   22.11055    1.73559
     141      444        5    -0.46910   13.77407   21.70925    4.14989
     142      444        4     0.13130   13.67505   21.40928    5.24510
     143      444        4     0.13130   14.53173   22.55546    4.05471
     144      444        4     0.13130   14.12689   20.81267    3.54073
     145      444        2    -0.32380    2.12619   12.68425    3.82145
     146      444        3     0.32120    3.40786   12.92159    3.50570
     147      444        2    -0.32380    3.72399   12.50122    2.26429
     148      444        3    -0.06320    2.58190   11.96819    1.78534
     149      444        3    -0.06320    1.59502   12.08564    2.74070
     150      444        4     0.10430    2.55780   11.51920    0.73759
     151      444        4     0.10430    0.54433   11.69905    2.52572
     152      444        5    -0.46910    4.36262   13.55373    4.44584
     153      444        4     0.13130    4.71725   14.54807    4.01562
     154      444        4     0.13130    5.25777   12.86492    4.59838
     155      444        4     0.13130    3.84695   13.73478    5.44638
     156      444        2    -0.32380   23.07832   12.48004   21.89769
     157      444        3     0.32120   21.84046   12.84090   22.26649
     158      444        2    -0.32380   21.46216   12.28302   23.43378
     159      444        3    -0.06320   22.51603   11.52960   23.80740
     160      444        3    -0.06320   23.51491   11.65465   22.86549
     161      444        4     0.10430   22.47158   10.92601   24.77368
     162      444        4     0.10430   24.50036   11.09764   23.00204
     163      444        5    -0.46910   20.98845   13.73618   21.44945
     164      444        4     0.13130   20.77368   14.69227   22.03221
     165      444        4     0.13130   20.00690   13.20982   21.20731
     166      444        4     0.13130   21.52982   13.99559   20.48013
     167      444        2    -0.32380   11.76052   23.10929   21.64362
     168      444        3     0.32120   12.38257   22.05242   22.18679
     169      444        2    -0.32380   11.83946   21.67661   23.36195
     170      444        3    -0.06320   10.83179   22.54930   23.56475
     171      444        3    -0.06320   10.77774   23.42856   22.50431
     172      444        4     0.10430   10.19155   22.47256   24.50514
     173      444        4     0.10430    9.98356   24.24625   22.48172
     174      444        5    -0.46910   13.55533   21.40121   21.55834
     175      444        4     0.13130   13.29264   20.32538   21.28701
     176      444        4     0.13130   14.42986   21.40598   22.28958
     177      444        4     0.13130   13.84605   21.97085   20.61440
     178      444        2    -0.32380    4.56395   12.58948   22.46269
     179      444        3     0.32120    3.27157   12.78076   22.15988
     180      444        2    -0.32380    3.04252   12.77766   20.83141
     181      444        3    -0.06320    4.25671   12.58169   20.27809
     182      444        3    -0.06320    5.19382   12.45926   21.28168
     183      444        4     0.10430    4.36666   12.54163   19.14405
     184      444        4     0.10430    6.28888   12.27968   21.02000
     185      444        5    -0.46910    2.22935   12.99738   23.19038
     186      444        4     0.13130    1.47325   12.14523   23.15078
     187      444        4     0.13130    1.69816   13.98627   22.99138
     188      444        4     0.13130    2.71471   13.02737   24.22137
     189      444        2    -0.32380   13.34940    4.04537   23.25789
     190      444        3     0.32120   12.73627    3.48689   22.20379
     191      444        2    -0.32380   13.50895    2.57974   21.57332
     192      444        3    -0.06320   14.66577    2.57906   22.26623
     193      444        3    -0.06320   14.56691    3.47671   23.30789
     194      444        4     0.10430   15.52203    1.89815   21.94541
     195      444        4     0.10430   15.44388    3.61987   24.02213
     196      444        5    -0.46910   11.36697    3.86186   21.78018
     197      444        4     0.13130   10.67903    2.95774   21.87561
     198      444        4     0.13130   11.38725    4.21112   20.69537
     199      444        4     0.13130   10.98134    4.70468   22.44390
     200      444        2    -0.32380   13.54328    2.94571    4.43289
     201      444        3     0.32120   12.84751    3.59982    3.49123
     202      444        2    -0.32380   13.51165    4.66539    3.00035
     203      444        3    -0.06320   14.67793    4.67968    3.67677
     204      444        3    -0.06320   14.70169    3.61757    4.55523
     205      444        4     0.10430   15.44806    5.49409    3.46814
     206      444        4     0.10430   15.61223    3.44778    5.21997
     207      444        5    -0.46910   11.48635    3.19307    3.07117
     208      444        4     0.13130   11.50268    2.89066    1.97189
     209      444        4     0.13130   10.76782    4.06618    3.21458
     210      444        4     0.13130   11.14181    2.30919    3.70317
     211      444        2    -0.32380   20.52082   22.44574   13.14917
     212      444        3     0.32120   21.77165   22.10403   12.80627
     213      444        2    -0.32380   22.15805   20.93184   13.34867
     214      444        3    -0.06320   21.09521   20.52644   14.07256
     215      444        3    -0.06320   20.08381   21.45468   13.94590
     216      444        4     0.10430   21.14342   19.54912   14.65760
     217      444        4     0.10430   19.08993   21.29107   14.47993
     218      444        5    -0.46910   22.62808   22.95264   11.94507
     219      444        4     0.13130   22.87164   22.39264   10.98210
     220      444        4     0.13130   23.59478   23.19944   12.49611
     221      444        4     0.13130   22.07629   23.91789   11.69380
     222      444        2    -0.32380   21.02660    3.03689   12.22833
     223      444        3     0.32120   22.04078    3.61899   12.88521
     224      444        2    -0.32380   22.70445    4.51536   12.12782
     225      444        3    -0.06320   22.07553    4.48406   10.93539
     226      444        3    -0.06320   21.03800    3.57851   10.99758
     227      444        4     0.10430   22.43658    5.14930   10.08283
     228      444        4     0.10430   20.37391    3.40935   10.08663
     229      444        5    -0.46910   22.39256    3.27821   14.28322
     230      444        4     0.13130   22.25210    4.19589   14.94492
     231      444        4     0.13130   23.47997    2.93920   14.32967
     232      444        4     0.13130   21.71636    2.43756   14.65126
     233      444        2    -0.32380    2.90879   20.86328   12.63672
     234      444        3     0.32120    3.20887   22.15451   12.83977
     235      444        2    -0.32380    4.53681   22.38668   12.83673
     236      444        3    -0.06320    5.09262   21.17588   12.62860
     237      444        3    -0.06320    4.09125   20.23749   12.49915
     238      444        4     0.10430    6.22686   21.06903   12.58596
     239      444        4     0.10430    4.35523   19.14474   12.30904
     240      444        5    -0.46910    2.17619   23.19227   13.06770
     241      444        4     0.13130    2.21265   23.95637   12.22224
     242      444        4     0.13130    2.37543   23.71475   14.06088
     243      444        4     0.13130    1.14635   22.70410   13.09435
     244      444        2    -0.32380    2.18347    3.81267   13.08166
     245      444        3     0.32120    3.47368    3.51129   12.87353
     246      444        2    -0.32380    3.78959    2.26639   13.28293
     247      444        3    -0.06320    2.63809    1.76932   13.77813
     248      444        3    -0.06320    1.64635    2.71830   13.64944
     249      444        4     0.10430    2.61169    0.71479   14.21038
     250      444        4     0.10430    0.58794    2.48843   14.00504
     251      444        5    -0.46910    4.43623    4.46916   12.28138
     252      444        4     0.13130    4.82047    4.05769   11.28997
     253      444        4     0.13130    5.31183    4.61889   12.99587
     254      444        4     0.13130    3.91692    5.46810   12.10218
     255      444        2    -0.32380   10.42842   16.46657   25.37903
     256      444        3     0.32120    9.28201   16.20329    0.22818
     257      444        2    -0.32380    8.84343   14.90049   25.15618
     258      444        3    -0.06320    9.98559   14.44784   24.60058
     259      444        3    -0.06320   10.96455   15.40872   24.73789
     260      444        4     0.10430   10.01542   13.41382   24.12137
     261      444        4     0.10430   12.01377   15.21461   24.33686
     262      444        5    -0.46910    8.32391   17.11615    0.89470
     263      444        4     0.13130    7.98144   16.65413    1.87900
     264      444        4     0.13130    7.42162   17.28016    0.21752
     265      444        4     0.13130    8.83172   18.11578    1.10054
     266      444        2    -0.32380    9.56254    8.19011   25.33004
     267      444        3     0.32120    9.35881    9.53546    0.20128
     268      444        2    -0.32380    8.00151    9.78142   25.12318
     269      444        3    -0.06320    7.55111    8.64803   24.54778
     270      444        3    -0.06320    8.50898    7.66515   24.67977
     271      444        4     0.10430    6.52130    8.62689   24.05919
     272      444        4     0.10430    8.31607    6.62185   24.26249
     273      444        5    -0.46910   10.26763   10.48215    0.88886
     274      444        4     0.13130    9.79772   10.81195    1.87392
     275      444        4     0.13130   10.43940   11.39317    0.22590
     276      444        4     0.13130   11.26440    9.96919    1.09623

Bonds

       1        1       13        9
       2        2       13       14
       3        2       13       17
       4        2       14       15
       5        3       14       20
       6        1       15        1
       7        2       15       16
       8        4       16       17
       9        5       16       18
      10        5       17       19
      11        6       20       21
      12        6       20       22
      13        6       20       23
      14        1       24        8
      15        2       24       25
      16        2       24       28
      17        2       25       26
      18        3       25       31
      19        1       26        2
      20        2       26       27
      21        4       27       28
      22        5       27       29
      23        5       28       30
      24        6       31       32
      25        6       31       33
      26        6       31       34
      27        1       35        3
      28        2       35       36
      29        2       35       39
      30        2       36       37
      31        3       36       42
      32        1       37        7
      33        2       37       38
      34        4       38       39
      35        5       38       40
      36        5       39       41
      37        6       42       43
      38        6       42       44
      39        6       42       45
      40        1       46        6
      41        2       46       47
      42        2       46       50
      43        2       47       48
      44        3       47       53
      45        1       48        2
      46        2       48       49
      47        4       49       50
      48        5       49       51
      49        5       50       52
      50        6       53       54
      51        6       53       55
      52        6       53       56
      53        1       57        3
      54        2       57       58
      55        2       57       61
      56        2       58       59
      57        3       58       64
      58        1       59        9
      59        2       59       60
      60        4       60       61
      61        5       60       62
      62        5       61       63
      63        6       64       65
      64        6       64       66
      65        6       64       67
      66        1       68        4
      67        2       68       69
      68        2       68       72
      69        2       69       70
      70        3       69       75
      71        1       70       10
      72        2       70       71
      73        4       71       72
      74        5       71       73
      75        5       72       74
      76        6       75       76
      77        6       75       77
      78        6       75       78
      79        1       79       12
      80        2       79       80
      81        2       79       83
      82        2       80       81
      83        3       80       86
      84        1       81        4
      85        2       81       82
      86        4       82       83
      87        5       82       84
      88        5       83       85
      89        6       86       87
      90        6       86       88
      91        6       86       89
      92        1       90        5
      93        2       90       91
      94        2       90       94
      95        2       91       92
      96        3       91       97
      97        1       92        6
      98        2       92       93
      99        4       93       94
     100        5       93       95
     101        5       94       96
     102        6       97       98
     103        6       97       99
     104        6       97      100
     105        1      101        7
     106        2      101      102
     107        2      101      105
     108        2      102      103
     109        3      102      108
     110        1      103        1
     111        2      103      104
     112        4      104      105
     113        5      104      106
     114        5      105      107
     115        6      108      109
     116        6      108      110
     117        6      108      111
     118        1      112        5
     119        2      112      113
     120        2      112      116
     121        2      113      114
     122        3      113      119
     123        1      114        8
     124        2      114      115
     125        4      115      116
     126        5      115      117
     127        5      116      118
     128        6      119      120
     129        6      119      121
     130        6      119      122
     131        1      123        3
     132        2      123      124
     133        2      123      127
     134        2      124      125
     135        3      124      130
     136        1      125        4
     137        2      125      126
     138        4      126      127
     139        5      126      128
     140        5      127      129
     141        6      130      131
     142        6      130      132
     143        6      130      133
     144        1      134       10
     145        2      134      135
     146        2      134      138
     147        2      135      136
     148        3      135      141
     149        1      136        2
     150        2      136      137
     151        4      137      138
     152        5      137      139
     153        5      138      140
     154        6      141      142
     155        6      141      143
     156        6      141      144
     157        1      145        3
     158        2      145      146
     159        2      145      149
     160        2      146      147
     161        3      146      152
     162        1      147       11
     163        2      147      148
     164        4      148      149
     165        5      148      150
     166        5      149      151
     167        6      152      153
     168        6      152      154
     169        6      152      155
     170        1      156        1
     171        2      156      157
     172        2      156      160
     173        2      157      158
     174        3      157      163
     175        1      158        4
     176        2      158      159
     177        4      159      160
     178        5      159      161
     179        5      160      162
     180        6      163      164
     181        6      163      165
     182        6      163      166
     183        1      167        5
     184        2      167      168
     185        2      167      171
     186        2      168      169
     187        3      168      174
     188        1      169       10
     189        2      169      170
     190        4      170      171
     191        5      170      172
     192        5      171      173
     193        6      174      175
     194        6      174      176
     195        6      174      177
     196        1      178       11
     197        2      178      179
     198        2      178      182
     199        2      179      180
     200        3      179      185
     201        1      180        1
     202        2      180      181
     203        4      181      182
     204        5      181      183
     205        5      182      184
     206        6      185      186
     207        6      185      187
     208        6      185      188
     209        1      189       12
     210        2      189      190
     211        2      189      193
     212        2      190      191
     213        3      190      196
     214        1      191        5
     215        2      191      192
     216        4      192      193
     217        5      192      194
     218        5      193      195
     219        6      196      197
     220        6      196      198
     221        6      196      199
     222        1      200        2
     223        2      200      201
     224        2      200      204
     225        2      201      202
     226        3      201      207
     227        1      202       12
     228        2      202      203
     229        4      203      204
     230        5      203      205
     231        5      204      206
     232        6      207      208
     233        6      207      209
     234        6      207      210
     235        1      211        8
     236        2      211      212
     237        2      211      215
     238        2      212      213
     239        3      212      218
     240        1      213        7
     241        2      213      214
     242        4      214      215
     243        5      214      216
     244        5      215      217
     245        6      218      219
     246        6      218      220
     247        6      218      221
     248        1      222        8
     249        2      222      223
     250        2      222      226
     251        2      223      224
     252        3      223      229
     253        1      224        9
     254        2      224      225
     255        4      225      226
     256        5      225      227
     257        5      226      228
     258        6      229      230
     259        6      229      231
     260        6      229      232
     261        1      233        7
     262        2      233      234
     263        2      233      237
     264        2      234      235
     265        3      234      240
     266        1      235        6
     267        2      235      236
     268        4      236      237