
#------------------------------------------------------------------------------#
# simulation settings
#------------------------------------------------------------------------------#

##### simulation variables

variable        seed 	equal  20902
variable        T       equal  300	    #K
variable        p       equal  0.0 	#bar
variable        damp_T  equal  100 		  	#K
variable        damp_P  equal  1000.0	  	#bar
variable        dT      equal  1.0 		 	#fs
variable        kb      equal  0.0019872041

## system setup ##

units           real
atom_style      full
boundary        p p p

pair_style      zero 12.5 nocoeff
bond_style      harmonic
angle_style     hybrid cosine/periodic fourier
dihedral_style  harmonic
improper_style  fourier

pair_modify 	tail yes mix arithmetic
special_bonds 	lj/coul 0.0 0.0 1.0

read_data 	 	../data.emin_sod-4c_Zn-2c_mim_fe
Reading data file ...
  triclinic box = (4.5054746 4.3760097 4.4164229) to (20.786525 20.913779 20.965143) with tilt (-0.95270579 -0.51398262 -1.0127119)
  1 by 2 by 2 MPI processor grid
  reading atoms ...
  276 atoms
  reading velocities ...
  276 velocities
  scanning bonds ...
  3 = max bonds/atom
  scanning angles ...
  6 = max angles/atom
  scanning dihedrals ...
  10 = max dihedrals/atom
  scanning impropers ...
  4 = max impropers/atom
  reading bonds ...
  312 bonds
  reading angles ...
  576 angles
  reading dihedrals ...
  624 dihedrals
  reading impropers ...
  360 impropers
Finding 1-2 1-3 1-4 neighbors ...
  special bond factors lj:    0        0        1       
  special bond factors coul:  0        0        1       
     4 = max # of 1-2 neighbors
     8 = max # of 1-3 neighbors
    12 = max # of special neighbors
  special bonds CPU = 0.000 seconds
  read_data CPU = 0.004 seconds
include 	 	../bonded_sod-4c_Zn-2c_mim.param
### Parameters for Equilibration ###

### Parameters for MOF ###

mass 1 65.380000000
mass 2 14.006700000
mass 3 12.010700000
mass 4 1.007940000
mass 5 12.010700000


variable b1 equal ${lambda}*165.837318
variable b1 equal 1e-08*165.837318
bond_coeff 1 ${b1} 1.881712
bond_coeff 1 1.65837318e-06 1.881712
variable b2 equal ${lambda}*663.718927
variable b2 equal 1e-08*663.718927
bond_coeff 2 ${b2} 1.345073
bond_coeff 2 6.63718927e-06 1.345073
variable b3 equal ${lambda}*369.943935
variable b3 equal 1e-08*369.943935
bond_coeff 3 ${b3} 1.486000
bond_coeff 3 3.69943935e-06 1.486000
variable b4 equal ${lambda}*462.655054
variable b4 equal 1e-08*462.655054
bond_coeff 4 ${b4} 1.379256
bond_coeff 4 4.62655054e-06 1.379256
variable b5 equal ${lambda}*357.440381
variable b5 equal 1e-08*357.440381
bond_coeff 5 ${b5} 1.081418
bond_coeff 5 3.57440381e-06 1.081418
variable b6 equal ${lambda}*331.069389
variable b6 equal 1e-08*331.069389
bond_coeff 6 ${b6} 1.109401
bond_coeff 6 3.31069389e-06 1.109401

variable a1 equal ${lambda}*197.524216
variable a1 equal 1e-08*197.524216
angle_coeff 1 fourier ${a1} 0.343737 0.374972 0.281246
angle_coeff 1 fourier 1.97524216e-06 0.343737 0.374972 0.281246
variable a2 equal ${lambda}*45.889625
variable a2 equal 1e-08*45.889625
angle_coeff 2 cosine/periodic ${a2} -1 3
angle_coeff 2 cosine/periodic 4.5889625e-07 -1 3
variable a3 equal ${lambda}*120.000516
variable a3 equal 1e-08*120.000516
angle_coeff 3 cosine/periodic ${a3} -1 3
angle_coeff 3 cosine/periodic 1.20000516e-06 -1 3
variable a4 equal ${lambda}*212.442573
variable a4 equal 1e-08*212.442573
angle_coeff 4 cosine/periodic ${a4} -1 3
angle_coeff 4 cosine/periodic 2.12442573e-06 -1 3
variable a5 equal ${lambda}*136.548728
variable a5 equal 1e-08*136.548728
angle_coeff 5 cosine/periodic ${a5} -1 3
angle_coeff 5 cosine/periodic 1.36548728e-06 -1 3
variable a6 equal ${lambda}*153.699352
variable a6 equal 1e-08*153.699352
angle_coeff 6 cosine/periodic ${a6} -1 3
angle_coeff 6 cosine/periodic 1.53699352e-06 -1 3
variable a7 equal ${lambda}*79.786967
variable a7 equal 1e-08*79.786967
angle_coeff 7 cosine/periodic ${a7} -1 3
angle_coeff 7 cosine/periodic 7.9786967e-07 -1 3
variable a8 equal ${lambda}*57.289016
variable a8 equal 1e-08*57.289016
angle_coeff 8 cosine/periodic ${a8} -1 3
angle_coeff 8 cosine/periodic 5.7289016e-07 -1 3
variable a9 equal ${lambda}*121.777217
variable a9 equal 1e-08*121.777217
angle_coeff 9 fourier ${a9} 0.343737 0.374972 0.281246
angle_coeff 9 fourier 1.21777217e-06 0.343737 0.374972 0.281246
variable a10 equal ${lambda}*75.498766
variable a10 equal 1e-08*75.498766
angle_coeff 10 fourier ${a10} 0.343737 0.374972 0.281246
angle_coeff 10 fourier 7.5498766e-07 0.343737 0.374972 0.281246

variable d1 equal ${lambda}*3.368555
variable d1 equal 1e-08*3.368555
dihedral_coeff 1 ${d1} -1 2
dihedral_coeff 1 3.368555e-08 -1 2
variable d2 equal ${lambda}*0.166667
variable d2 equal 1e-08*0.166667
dihedral_coeff 2 ${d2} 1 3
dihedral_coeff 2 1.66667e-09 1 3

variable i1 equal ${lambda}*2.000000
variable i1 equal 1e-08*2.000000
improper_coeff 1 ${i1} 1.000000 -1.000000 0.000000 0
improper_coeff 1 2e-08 1.000000 -1.000000 0.000000 0

pair_coeff * *

group			fram type < 6
276 atoms in group fram

fix				SPRING fram spring/self 10 	# harmonic restraint to framework



#------------------------------------------------------------------------------#
# equilibration
#------------------------------------------------------------------------------#

reset_timestep	0

thermo_style	custom step etotal ke pe temp press density vol ebond eangle edihed eimp emol
thermo 			5000

velocity 		all create ${T} ${seed}
velocity 		all create 300 ${seed}
velocity 		all create 300 20902

fix				f1 all nve
fix 			f2 all langevin ${T} ${T} ${damp_T} ${seed} zero yes
fix 			f2 all langevin 300 ${T} ${damp_T} ${seed} zero yes
fix 			f2 all langevin 300 300 ${damp_T} ${seed} zero yes
fix 			f2 all langevin 300 300 100 ${seed} zero yes
fix 			f2 all langevin 300 300 100 20902 zero yes
compute 		c1 all temp/com
fix_modify		f2 temp c1

run				200000
Generated 0 of 10 mixed pair_coeff terms from arithmetic mixing rule
Neighbor list info ...
  update every 1 steps, delay 10 steps, check yes
  max neighbors/atom: 2000, page size: 100000
  master list distance cutoff = 14.5
  ghost atom cutoff = 14.5
  binsize = 7.25, bins = 3 3 3
  1 neighbor lists, perpetual/occasional/extra = 1 0 0
  (1) pair zero, perpetual
      attributes: half, newton on
      pair build: half/bin/newton/tri
      stencil: half/bin/3d/tri
      bin: standard
WARNING: Inconsistent image flags (../domain.cpp:819)
Per MPI rank memory allocation (min/avg/max) = 13.55 | 13.56 | 13.56 Mbytes
   Step         TotEng         KinEng         PotEng          Temp          Press         Density         Volume         E_bond        E_angle        E_dihed        E_impro         E_mol     
         0   245.91684      245.91683      1.0933332e-05  300            2522.8842      1.0177122      4455.7805      7.3886194e-08  9.8503634e-06  9.2943137e-07  7.9650956e-08  1.0933332e-05
      5000   234.19923      234.19901      0.00021804264  285.70514      2402.6668      1.0177122      4455.7805      0.00015022457  5.7741424e-05  8.5413841e-06  1.5352569e-06  0.00021804264
     10000   275.13202      275.1318       0.000221475    335.64006      2822.6001      1.0177122      4455.7805      0.00015764292  5.4330809e-05  8.1014795e-06  1.3997975e-06  0.000221475  
     15000   265.39353      265.39331      0.00021969315  323.75984      2722.6922      1.0177122      4455.7805      0.00015480743  5.5281295e-05  8.2349273e-06  1.3695007e-06  0.00021969315
     20000   273.01464      273.01443      0.0002137985   333.05703      2800.8781      1.0177122      4455.7805      0.00014663637  5.8112268e-05  7.7120621e-06  1.3377998e-06  0.0002137985 
     25000   261.75625      261.75603      0.00021972417  319.32263      2685.3768      1.0177122      4455.7805      0.00015249644  5.795572e-05   7.9454295e-06  1.3265846e-06  0.00021972417
     30000   262.02626      262.02604      0.00021852083  319.65203      2688.1471      1.0177122      4455.7805      0.00014666113  6.239003e-05   8.1330475e-06  1.3366247e-06  0.00021852083
     35000   259.86024      259.86004      0.00020676622  317.00966      2665.926       1.0177122      4455.7805      0.00013665756  6.0387255e-05  8.1476036e-06  1.5737987e-06  0.00020676622
     40000   269.77605      269.77584      0.00021900036  329.10619      2767.6531      1.0177122      4455.7805      0.00014972311  5.9784631e-05  8.1542128e-06  1.3384071e-06  0.00021900036
     45000   220.87044      220.87023      0.00020584778  269.44504      2265.9255      1.0177122      4455.7805      0.00013823862  5.749541e-05   8.6537082e-06  1.4600371e-06  0.00020584778
     50000   252.83741      252.83717      0.00024455358  308.44229      2593.877       1.0177122      4455.7805      0.00017142911  6.3199251e-05  8.2733156e-06  1.6519029e-06  0.00024455358
     55000   230.11058      230.11033      0.00024672733  280.71727      2360.7205      1.0177122      4455.7805      0.00017435907  6.3191934e-05  7.8569395e-06  1.3193798e-06  0.00024672733
     60000   234.8668       234.86656      0.00024279233  286.5195       2409.5149      1.0177122      4455.7805      0.00016854573  6.4008719e-05  8.8267593e-06  1.411118e-06   0.00024279233
     65000   243.22159      243.22136      0.00023261383  296.71173      2495.228       1.0177122      4455.7805      0.00016142511  6.1821467e-05  7.6998542e-06  1.6673964e-06  0.00023261383
     70000   243.79086      243.79063      0.00023325482  297.4062       2501.068       1.0177122      4455.7805      0.00016121949  6.2333909e-05  8.137792e-06   1.5636304e-06  0.00023325482
     75000   245.33958      245.33936      0.00021925717  299.29554      2516.9569      1.0177122      4455.7805      0.00015004022  5.9680825e-05  8.1337894e-06  1.4023428e-06  0.00021925717
     80000   264.49792      264.49769      0.00023076837  322.66725      2713.5034      1.0177122      4455.7805      0.00016743373  5.5104935e-05  7.1180451e-06  1.1116546e-06  0.00023076837
     85000   262.01507      262.01483      0.00024150928  319.63835      2688.0319      1.0177122      4455.7805      0.00016428697  6.6199855e-05  9.3113281e-06  1.711124e-06   0.00024150928
     90000   251.39856      251.39833      0.0002280731   306.68702      2579.1162      1.0177122      4455.7805      0.00015963521  5.8890184e-05  8.1482255e-06  1.3994786e-06  0.0002280731 
     95000   239.28048      239.28028      0.00019971544  291.90391      2454.7962      1.0177122      4455.7805      0.00013160303  5.7997282e-05  8.5382452e-06  1.5768825e-06  0.00019971544
    100000   254.42822      254.42802      0.00020313232  310.38301      2610.1983      1.0177122      4455.7805      0.0001367196   5.7378434e-05  7.584417e-06   1.4498621e-06  0.00020313232
    105000   250.05106      250.05083      0.0002241419   305.04317      2565.2922      1.0177122      4455.7805      0.00015825906  5.7169422e-05  7.4307905e-06  1.2826272e-06  0.0002241419 
    110000   243.25866      243.25842      0.00023526462  296.75695      2495.6081      1.0177122      4455.7805      0.00016686465  5.9046849e-05  7.9579623e-06  1.3951565e-06  0.00023526462
    115000   248.77245      248.77223      0.00021803324  303.48337      2552.1747      1.0177122      4455.7805      0.00014296968  6.3978024e-05  9.3642913e-06  1.7212466e-06  0.00021803324
    120000   247.56038      247.56017      0.00020508044  302.00476      2539.7402      1.0177122      4455.7805      0.00013788863  5.7660012e-05  8.0701282e-06  1.4616649e-06  0.00020508044
    125000   254.37571      254.3755       0.00020675046  310.31895      2609.6596      1.0177122      4455.7805      0.00013814841  5.901632e-05   8.176704e-06   1.4090252e-06  0.00020675046
    130000   259.76763      259.76741      0.00021710909  316.89667      2664.9756      1.0177122      4455.7805      0.00014966662  5.7837974e-05  8.2424154e-06  1.3620817e-06  0.00021710909
    135000   279.01616      279.01591      0.00024071217  340.37839      2862.4476      1.0177122      4455.7805      0.00017453625  5.6060515e-05  8.6793439e-06  1.436055e-06   0.00024071217
    140000   252.0979       252.09768      0.00022385737  307.54017      2586.2909      1.0177122      4455.7805      0.00014970012  6.4258953e-05  8.5303057e-06  1.3679962e-06  0.00022385737
    145000   232.94733      232.94708      0.00024439769  284.17789      2389.8229      1.0177122      4455.7805      0.00016317456  6.9497977e-05  9.7025341e-06  2.0226236e-06  0.00024439769
    150000   250.09957      250.09934      0.00022813014  305.10235      2565.7896      1.0177122      4455.7805      0.00016316415  5.4571828e-05  8.640893e-06   1.7532605e-06  0.00022813014
    155000   273.48502      273.48481      0.00021167568  333.63086      2805.7035      1.0177122      4455.7805      0.00014589584  5.4968218e-05  9.1346912e-06  1.6769302e-06  0.00021167568
    160000   249.53604      249.53581      0.00022271116  304.41489      2560.0087      1.0177122      4455.7805      0.00015246361  6.091824e-05   8.0021324e-06  1.3271811e-06  0.00022271116
    165000   243.10423      243.104        0.00022380986  296.56856      2494.0238      1.0177122      4455.7805      0.00015297665  6.1322647e-05  8.1857244e-06  1.3248386e-06  0.00022380986
    170000   221.90819      221.90797      0.00022322446  270.711        2276.5716      1.0177122      4455.7805      0.00015531091  5.8490861e-05  8.1691653e-06  1.2535295e-06  0.00022322446
    175000   237.82289      237.82268      0.00021058148  290.12575      2439.8426      1.0177122      4455.7805      0.000138696    6.2751776e-05  7.8306756e-06  1.3030234e-06  0.00021058148
    180000   263.57144      263.57123      0.00021813796  321.53703      2703.9993      1.0177122      4455.7805      0.00015491106  5.3464141e-05  8.3776722e-06  1.3850864e-06  0.00021813796
    185000   237.62545      237.62521      0.00023554645  289.88486      2437.8162      1.0177122      4455.7805      0.00015827465  6.7436654e-05  8.3617111e-06  1.4734292e-06  0.00023554645
    190000   254.49508      254.49483      0.00025172564  310.46452      2610.8828      1.0177122      4455.7805      0.00017415004  6.6159624e-05  9.7196679e-06  1.6963095e-06  0.00025172564
    195000   240.79244      240.79219      0.00024804774  293.74833      2470.3066      1.0177122      4455.7805      0.0001757847   6.1685746e-05  8.9499687e-06  1.6273199e-06  0.00024804774
    200000   223.80179      223.80156      0.0002378552   273.02103      2295.9982      1.0177122      4455.7805      0.00017250053  5.6520315e-05  7.5268372e-06  1.3075256e-06  0.0002378552 
WARNING: Bond/angle/dihedral extent > half of periodic box length (../domain.cpp:940)
Loop time of 12.8543 on 4 procs for 200000 steps with 276 atoms

Performance: 1344.297 ns/day, 0.018 hours/ns, 15558.996 timesteps/s
99.8% CPU use with 4 MPI tasks x no OpenMP threads

MPI task timing breakdown:
Section |  min time  |  avg time  |  max time  |%varavg| %total
---------------------------------------------------------------
Pair    | 0.0087436  | 0.0091931  | 0.0097143  |   0.4 |  0.07
Bond    | 0.99827    | 1.0576     | 1.1393     |   5.0 |  8.23
Neigh   | 5.6109     | 5.6125     | 5.6137     |   0.0 | 43.66
Comm    | 5.2094     | 5.2943     | 5.3544     |   2.3 | 41.19
Output  | 0.0004105  | 0.00043103 | 0.00049008 |   0.0 |  0.00
Modify  | 0.69193    | 0.6961     | 0.70382    |   0.6 |  5.42
Other   |            | 0.1843     |            |       |  1.43

Nlocal:             69 ave          76 max          64 min
Histogram: 2 0 0 0 0 0 1 0 0 1
Nghost:         3688.5 ave        3719 max        3658 min
Histogram: 1 0 0 1 0 0 1 0 0 1
Neighs:        27107.5 ave       30060 max       24790 min
Histogram: 2 0 0 0 0 0 1 0 0 1

Total # of neighbors = 108430
Ave neighs/atom = 392.86232
Ave special neighs/atom = 6.4347826
Neighbor list builds = 9974
Dangerous builds = 0

#------------------------------------------------------------------------------#
# sampling
#------------------------------------------------------------------------------#

reset_timestep	0

compute 		MOF_pe_a fram pe/atom bond angle dihedral improper	# per atom quantity
compute			MOF_pe all reduce sum c_MOF_pe_a	# reduce to bulk quantity

variable 		dudlam	equal c_MOF_pe/${lambda}
variable 		dudlam	equal c_MOF_pe/1e-08

fix				BOND all ave/time 250 1 250 v_dudlam file bond_${lambda}.lmp
fix				BOND all ave/time 250 1 250 v_dudlam file bond_1e-08.lmp

thermo_style	custom step etotal ke pe temp press density vol c_MOF_pe v_dudlam
thermo 			250

run 			500000
Generated 0 of 10 mixed pair_coeff terms from arithmetic mixing rule
WARNING: Inconsistent image flags (../domain.cpp:819)
WARNING: Bond/angle/dihedral extent > half of periodic box length (../domain.cpp:940)
Per MPI rank memory allocation (min/avg/max) = 14.56 | 14.56 | 14.56 Mbytes
   Step         TotEng         KinEng         PotEng          Temp          Press         Density         Volume        c_MOF_pe       v_dudlam   
         0   223.80179      223.80156      0.0002378552   273.02103      2295.9982      1.0177122      4455.7805      0.0002378552   23785.52     
       250   253.85982      253.85962      0.00019865163  309.68961      2604.3674      1.0177122      4455.7805      0.00019865163  19865.163    
       500   275.56129      275.56107      0.0002186991   336.16374      2827.0041      1.0177122      4455.7805      0.0002186991   21869.91     
       750   239.20755      239.20734      0.00020879258  291.81492      2454.0478      1.0177122      4455.7805      0.00020879258  20879.258    
      1000   242.22436      242.22413      0.0002230736   295.49519      2484.9978      1.0177122      4455.7805      0.0002230736   22307.36     
      1250   249.96394      249.9637       0.00023196269  304.93688      2564.3983      1.0177122      4455.7805      0.00023196269  23196.269    
      1500   246.59117      246.59094      0.00022871149  300.82237      2529.7969      1.0177122      4455.7805      0.00022871149  22871.149    
      1750   216.37009      216.36985      0.00023934329  263.95491      2219.7557      1.0177122      4455.7805      0.00023934329  23934.329    
      2000   236.52089      236.52067      0.00021837685  288.53739      2426.4852      1.0177122      4455.7805      0.00021837685  21837.685    
      2250   234.86723      234.86702      0.00020668988  286.52006      2409.5203      1.0177122      4455.7805      0.00020668988  20668.988    
      2500   254.93607      254.93586      0.00020706598  311.00254      2615.4083      1.0177122      4455.7805      0.00020706598  20706.598    
      2750   257.84924      257.84902      0.00022169446  314.55637      2645.2944      1.0177122      4455.7805      0.00022169446  22169.446    
      3000   234.86595      234.86572      0.00023416324  286.51848      2409.5067      1.0177122      4455.7805      0.00023416324  23416.324    
      3250   248.70916      248.7089       0.00025959543  303.40612      2551.525       1.0177122      4455.7805      0.00025959543  25959.543    
      3500   252.6048       252.60458      0.0002165449   308.15855      2591.4916      1.0177122      4455.7805      0.0002165449   21654.49     
      3750   250.53527      250.53503      0.00024589016  305.63385      2570.2589      1.0177122      4455.7805      0.00024589016  24589.016    
      4000   252.98665      252.98641      0.00023264733  308.62436      2595.4084      1.0177122      4455.7805      0.00023264733  23264.733    
      4250   270.49303      270.4928       0.00023038375  329.98083      2775.0084      1.0177122      4455.7805      0.00023038375  23038.375    
      4500   252.76168      252.76148      0.00020047245  308.34996      2593.101       1.0177122      4455.7805      0.00020047245  20047.245    
      4750   249.60218      249.60195      0.00023026599  304.49557      2560.6871      1.0177122      4455.7805      0.00023026599  23026.599    
      5000   265.81561      265.81537      0.00024158834  324.27472      2727.022       1.0177122      4455.7805      0.00024158834  24158.834    
      5250   264.90554      264.90532      0.00022386305  323.16453      2717.6857      1.0177122      4455.7805      0.00022386305  22386.305    
      5500   234.42538      234.42517      0.0002078504   285.98104      2404.9872      1.0177122      4455.7805      0.0002078504   20785.04     
      5750   243.61211      243.61188      0.00023578266  297.18813      2499.2344      1.0177122      4455.7805      0.00023578266  23578.266    
      6000   265.9696       265.96936      0.00024232452  324.46258      2728.6014      1.0177122      4455.7805      0.00024232452  24232.452    
      6250   240.12586      240.12561      0.00025506985  292.93514      2463.4681      1.0177122      4455.7805      0.00025506985  25506.985    
      6500   253.39014      253.38991      0.00022706685  309.1166       2599.548       1.0177122      4455.7805      0.00022706685  22706.685    
      6750   246.86104      246.86082      0.00021900556  301.1516       2532.5656      1.0177122      4455.7805      0.00021900556  21900.556    
      7000   237.26515      237.26495      0.000196603    289.44537      2434.121       1.0177122      4455.7805      0.000196603    19660.3      
      7250   227.54579      227.54559      0.0001996107   277.58847      2334.4091      1.0177122      4455.7805      0.0001996107   19961.07     
      7500   257.80783      257.80761      0.00021715136  314.50586      2644.8698      1.0177122      4455.7805      0.00021715136  21715.136    
      7750   247.22186      247.22164      0.00022703281  301.59177      2536.2671      1.0177122      4455.7805      0.00022703281  22703.281    
      8000   231.29691      231.29669      0.00021991846  282.16454      2372.892       1.0177122      4455.7805      0.00021991846  21991.846    
      8250   227.79637      227.79616      0.00021042727  277.89414      2336.9797      1.0177122      4455.7805      0.00021042727  21042.727    
      8500   236.58384      236.58362      0.00021712587  288.61419      2427.1312      1.0177122      4455.7805      0.00021712587  21712.587    
      8750   255.13661      255.13638      0.00022734111  311.24716      2617.4651      1.0177122      4455.7805      0.00022734111  22734.111    
      9000   228.18119      228.18094      0.00024886351  278.36355      2340.9264      1.0177122      4455.7805      0.00024886351  24886.351    
      9250   247.62441      247.62419      0.00022235698  302.08285      2540.3972      1.0177122      4455.7805      0.00022235698  22235.698    
      9500   232.14636      232.14613      0.00023586875  283.20078      2381.6055      1.0177122      4455.7805      0.00023586875  23586.875    
      9750   244.16122      244.16098      0.00024008407  297.858        2504.8676      1.0177122      4455.7805      0.00024008407  24008.407    
     10000   240.75689      240.75666      0.00023561048  293.70498      2469.9423      1.0177122      4455.7805      0.00023561048  23561.048    
     10250   241.10454      241.10435      0.00019481573  294.12914      2473.51        1.0177122      4455.7805      0.00019481573  19481.573    
     10500   248.34517      248.34494      0.00023221539  302.96211      2547.7913      1.0177122      4455.7805      0.00023221539  23221.539    
     10750   243.57317      243.57293      0.00023985156  297.14062      2498.8343      1.0177122      4455.7805      0.00023985156  23985.156    
     11000   268.32533      268.3251       0.00022360471  327.33641      2752.7698      1.0177122      4455.7805      0.00022360471  22360.471    
     11250   265.94715      265.94693      0.00022594335  324.43521      2728.3718      1.0177122      4455.7805      0.00022594335  22594.335    
     11500   242.90693      242.90671      0.00021951246  296.32788      2491.9999      1.0177122      4455.7805      0.00021951246  21951.246    
     11750   247.35532      247.35509      0.00023161275  301.75457      2537.636       1.0177122      4455.7805      0.00023161275  23161.275    
     12000   229.59449      229.59426      0.00023475143  280.08769      2355.4264      1.0177122      4455.7805      0.00023475143  23475.143    
     12250   261.64579      261.64558      0.00020472072  319.1879       2684.244       1.0177122      4455.7805      0.00020472072  20472.072    
     12500   252.32659      252.32637      0.00021090936  307.81916      2588.6376      1.0177122      4455.7805      0.00021090936  21090.936    
     12750   245.88489      245.88468      0.0002050282   299.96078      2522.5514      1.0177122      4455.7805      0.0002050282   20502.82     
     13000   256.34724      256.34699      0.00024455714  312.72401      2629.8852      1.0177122      4455.7805      0.00024455714  24455.714    
     13250   247.24692      247.2467       0.00022388013  301.62234      2536.5242      1.0177122      4455.7805      0.00022388013  22388.013    
     13500   263.58082      263.5806       0.00021218249  321.54847      2704.0957      1.0177122      4455.7805      0.00021218249  21218.249    
     13750   268.16285      268.16262      0.00022832576  327.13819      2751.1024      1.0177122      4455.7805      0.00022832576  22832.576    
     14000   224.07811      224.07787      0.00023767637  273.35812      2298.8329      1.0177122      4455.7805      0.00023767637  23767.637    
     14250   237.82937      237.82915      0.00021621493  290.13364      2439.9091      1.0177122      4455.7805      0.00021621493  21621.493    
     14500   244.344        244.34379      0.00021122952  298.08101      2506.7431      1.0177122      4455.7805      0.00021122952  21122.952    
     14750   221.30339      221.30316      0.00023522804  269.97318      2270.3666      1.0177122      4455.7805      0.00023522804  23522.804    
     15000   282.75335      282.75311      0.00023231293  344.93749      2900.788       1.0177122      4455.7805      0.00023231293  23231.293    
     15250   239.43354      239.43328      0.00026189433  292.09056      2456.3653      1.0177122      4455.7805      0.00026189433  26189.433    
     15500   247.66952      247.6693       0.00021367675  302.13789      2540.8603      1.0177122      4455.7805      0.00021367675  21367.675    
     15750   255.59398      255.59375      0.00022955373  311.80512      2622.1572      1.0177122      4455.7805      0.00022955373  22955.373    
     16000   245.75985      245.75963      0.00022139658  299.80823      2521.2685      1.0177122      4455.7805      0.00022139658  22139.658    
     16250   242.99011      242.98988      0.00022974031  296.42935      2492.8535      1.0177122      4455.7805      0.00022974031  22974.031    
     16500   250.59505      250.59479      0.00026179269  305.70676      2570.872       1.0177122      4455.7805      0.00026179269  26179.269    
     16750   241.31139      241.31118      0.00020628863  294.38146      2475.6317      1.0177122      4455.7805      0.00020628863  20628.863    
     17000   267.8106       267.81038      0.00022090367  326.70848      2747.4891      1.0177122      4455.7805      0.00022090367  22090.367    
     17250   250.00518      250.00491      0.00026436652  304.98715      2564.8203      1.0177122      4455.7805      0.00026436652  26436.652    
     17500   261.92848      261.92825      0.00023079465  319.53273      2687.1434      1.0177122      4455.7805      0.00023079465  23079.465    
     17750   276.80795      276.80773      0.00021367937  337.68457      2839.7942      1.0177122      4455.7805      0.00021367937  21367.937    
     18000   268.05501      268.05478      0.00022716274  327.00663      2749.9963      1.0177122      4455.7805      0.00022716274  22716.274    
     18250   263.77627      263.77603      0.00024074613  321.78688      2706.1002      1.0177122      4455.7805      0.00024074613  24074.613    
     18500   246.56802      246.5678       0.00022093805  300.79414      2529.5594      1.0177122      4455.7805      0.00022093805  22093.805    
     18750   232.97713      232.97689      0.00023711651  284.21425      2390.1289      1.0177122      4455.7805      0.00023711651  23711.651    
     19000   256.66784      256.66762      0.00021521399  313.11516      2633.1746      1.0177122      4455.7805      0.00021521399  21521.399    
     19250   244.3102       244.30997      0.00022364861  298.03976      2506.3962      1.0177122      4455.7805      0.00022364861  22364.861    
     19500   238.05527      238.05504      0.00023441442  290.40921      2442.2263      1.0177122      4455.7805      0.00023441442  23441.442    
     19750   278.94092      278.94068      0.00024082417  340.28661      2861.6755      1.0177122      4455.7805      0.00024082417  24082.417    
     20000   256.73572      256.73547      0.00024906559  313.19792      2633.8703      1.0177122      4455.7805      0.00024906559  24906.559    
     20250   261.39187      261.39162      0.00025523584  318.87808      2681.6375      1.0177122      4455.7805      0.00025523584  25523.584    
     20500   228.39095      228.39072      0.00022920942  278.61946      2343.0788      1.0177122      4455.7805      0.00022920942  22920.942    
     20750   251.30248      251.30227      0.00020386912  306.56983      2578.1313      1.0177122      4455.7805      0.00020386912  20386.912    
     21000   266.73972      266.73949      0.00022467319  325.40208      2736.5029      1.0177122      4455.7805      0.00022467319  22467.319    
     21250   242.36232      242.36208      0.00023169106  295.66348      2486.4127      1.0177122      4455.7805      0.00023169106  23169.106    
     21500   230.32476      230.32453      0.00023320864  280.97856      2362.918       1.0177122      4455.7805      0.00023320864  23320.864    
     21750   239.23586      239.23564      0.00021743314  291.84946      2454.3382      1.0177122      4455.7805      0.00021743314  21743.314    
     22000   226.79399      226.79376      0.00023359734  276.67129      2326.696       1.0177122      4455.7805      0.00023359734  23359.734    
     22250   231.86102      231.86079      0.00022723876  282.85269      2378.6785      1.0177122      4455.7805      0.00022723876  22723.876    
     22500   247.52726      247.52701      0.00025140194  301.96429      2539.3996      1.0177122      4455.7805      0.00025140194  25140.194    
     22750   246.40682      246.40661      0.00020558746  300.5975       2527.906       1.0177122      4455.7805      0.00020558746  20558.746    
     23000   239.98279      239.98254      0.00024812089  292.76062      2462.0006      1.0177122      4455.7805      0.00024812089  24812.089    
     23250   238.78285      238.78263      0.00022191244  291.29682      2449.6906      1.0177122      4455.7805      0.00022191244  22191.244    
     23500   252.03857      252.03833      0.00023357302  307.46777      2585.6821      1.0177122      4455.7805      0.00023357302  23357.302    
     23750   266.02984      266.0296       0.00023587879  324.53607      2729.2203      1.0177122      4455.7805      0.00023587879  23587.879    
     24000   257.12365      257.12343      0.00022333576  313.6712       2637.8505      1.0177122      4455.7805      0.00022333576  22333.576    
     24250   250.31559      250.31535      0.00023506905  305.36587      2568.0057      1.0177122      4455.7805      0.00023506905  23506.905    
     24500   250.384        250.38378      0.00022158618  305.44934      2568.7079      1.0177122      4455.7805      0.00022158618  22158.618    
     24750   257.59031      257.59004      0.00027607563  314.24043      2642.6366      1.0177122      4455.7805      0.00027607563  27607.563    
     25000   253.47543      253.47522      0.00021666748  309.22066      2600.4235      1.0177122      4455.7805      0.00021666748  21666.748    
     25250   237.193        237.19275      0.00024460363  289.35729      2433.3796      1.0177122      4455.7805      0.00024460363  24460.363    
     25500   259.15137      259.15114      0.00022711416  316.14486      2658.6528      1.0177122      4455.7805      0.00022711416  22711.416    
     25750   242.21599      242.21577      0.00021485947  295.48499      2484.912       1.0177122      4455.7805      0.00021485947  21485.947    
     26000   246.60039      246.60014      0.00024434868  300.83359      2529.8913      1.0177122      4455.7805      0.00024434868  24434.868    
     26250   260.81238      260.81214      0.0002376131   318.17116      2675.6931      1.0177122      4455.7805      0.0002376131   23761.31     
     26500   252.78875      252.78851      0.00024399928  308.38293      2593.3782      1.0177122      4455.7805      0.00024399928  24399.928    
     26750   244.10294      244.10272      0.0002195032   297.78693      2504.2701      1.0177122      4455.7805      0.0002195032   21950.32     
     27000   250.76185      250.76162      0.00023514611  305.91028      2572.5841      1.0177122      4455.7805      0.00023514611  23514.611    
     27250   257.74638      257.74615      0.00022633217  314.43088      2644.2391      1.0177122      4455.7805      0.00022633217  22633.217    
     27500   254.81813      254.81793      0.00020088731  310.85867      2614.1984      1.0177122      4455.7805      0.00020088731  20088.731    
     27750   251.41132      251.41109      0.00022710943  306.70258      2579.2467      1.0177122      4455.7805      0.00022710943  22710.943    
     28000   255.76919      255.76894      0.00025410888  312.01883      2623.9546      1.0177122      4455.7805      0.00025410888  25410.888    
     28250   255.85636      255.85614      0.00022602898  312.12521      2624.8492      1.0177122      4455.7805      0.00022602898  22602.898    
     28500   246.12134      246.12111      0.00023054953  300.24921      2524.9767      1.0177122      4455.7805      0.00023054953  23054.953    
     28750   246.16334      246.1631       0.00024373658  300.30043      2525.4072      1.0177122      4455.7805      0.00024373658  24373.658    
     29000   242.47314      242.47291      0.00023245095  295.79868      2487.5498      1.0177122      4455.7805      0.00023245095  23245.095    
     29250   238.36431      238.36408      0.00023118344  290.78622      2445.3968      1.0177122      4455.7805      0.00023118344  23118.344    
     29500   252.54748      252.54726      0.00022088004  308.08862      2590.9031      1.0177122      4455.7805      0.00022088004  22088.004    
     29750   240.51703      240.51681      0.00022095878  293.41239      2467.482       1.0177122      4455.7805      0.00022095878  22095.878    
     30000   239.31207      239.31186      0.00020920319  291.94243      2455.1204      1.0177122      4455.7805      0.00020920319  20920.319    
     30250   234.80792      234.80768      0.00023752163  286.44768      2408.9108      1.0177122      4455.7805      0.00023752163  23752.163    
     30500   271.53612      271.53588      0.00023955923  331.25331      2785.7093      1.0177122      4455.7805      0.00023955923  23955.923    
     30750   261.35683      261.3566       0.00022710329  318.83536      2681.2791      1.0177122      4455.7805      0.00022710329  22710.329    
     31000   236.02944      236.02919      0.00025814283  287.93782      2421.4419      1.0177122      4455.7805      0.00025814283  25814.283    
     31250   235.88667      235.88642      0.00024722568  287.76366      2419.978       1.0177122      4455.7805      0.00024722568  24722.568    
     31500   249.12181      249.12158      0.00023009512  303.90955      2555.7587      1.0177122      4455.7805      0.00023009512  23009.512    
     31750   237.50316      237.50293      0.00022452846  289.73568      2436.5618      1.0177122      4455.7805      0.00022452846  22452.846    
     32000   241.82931      241.82909      0.00022534334  295.01327      2480.945       1.0177122      4455.7805      0.00022534334  22534.334    
     32250   224.57223      224.57202      0.00021589222  273.96094      2303.9028      1.0177122      4455.7805      0.00021589222  21589.222    
     32500   258.83027      258.83003      0.0002393179   315.75313      2655.3586      1.0177122      4455.7805      0.0002393179   23931.79     
     32750   262.8958       262.89558      0.00022336151  320.7128       2697.0677      1.0177122      4455.7805      0.00022336151  22336.151    
     33000   267.07722      267.077        0.0002233274   325.81381      2739.965       1.0177122      4455.7805      0.0002233274   22332.74     
     33250   259.73497      259.7347       0.0002637515   316.85677      2664.6398      1.0177122      4455.7805      0.0002637515   26375.15     
     33500   215.35174      215.35151      0.00023696442  262.71261      2209.3077      1.0177122      4455.7805      0.00023696442  23696.442    
     33750   255.76804      255.76781      0.0002313747   312.01745      2623.9433      1.0177122      4455.7805      0.0002313747   23137.47     
     34000   303.52688      303.52665      0.0002227046   370.27964      3113.906       1.0177122      4455.7805      0.0002227046   22270.46     
     34250   267.09854      267.09831      0.00022388491  325.83982      2740.1837      1.0177122      4455.7805      0.00022388491  22388.491    
     34500   250.28911      250.28891      0.00020634617  305.33361      2567.735       1.0177122      4455.7805      0.00020634617  20634.617    
     34750   268.89609      268.89587      0.00021855128  328.0327       2758.6255      1.0177122      4455.7805      0.00021855128  21855.128    
     35000   247.57332      247.57311      0.00021491604  302.02053      2539.873       1.0177122      4455.7805      0.00021491604  21491.604    
     35250   258.4583       258.45807      0.00023016912  315.29937      2651.5425      1.0177122      4455.7805      0.00023016912  23016.912    
     35500   253.80921      253.809        0.00020962456  309.62785      2603.848       1.0177122      4455.7805      0.00020962456  20962.456    
     35750   266.79344      266.79323      0.00021854306  325.46763      2737.0542      1.0177122      4455.7805      0.00021854306  21854.306    
     36000   270.21425      270.21401      0.00023928072  329.64073      2772.1479      1.0177122      4455.7805      0.00023928072  23928.072    
     36250   248.87025      248.87002      0.00022800163  303.60267      2553.1779      1.0177122      4455.7805      0.00022800163  22800.163    
     36500   251.11058      251.11036      0.00022440772  306.33571      2576.1618      1.0177122      4455.7805      0.00022440772  22440.772    
     36750   243.70855      243.7083       0.00024458903  297.30577      2500.2236      1.0177122      4455.7805      0.00024458903  24458.903    
     37000   244.9904       244.99017      0.00023119982  298.86955      2513.3741      1.0177122      4455.7805      0.00023119982  23119.982    
     37250   245.84904      245.84881      0.00023092509  299.91702      2522.1838      1.0177122      4455.7805      0.00023092509  23092.509    
     37500   244.35011      244.34989      0.00022710742  298.08845      2506.8054      1.0177122      4455.7805      0.00022710742  22710.742    
     37750   233.05242      233.05219      0.00023228188  284.30611      2390.9013      1.0177122      4455.7805      0.00023228188  23228.188    
     38000   241.51255      241.51232      0.00022623977  294.62683      2477.6942      1.0177122      4455.7805      0.00022623977  22623.977    
     38250   246.33258      246.33236      0.00021736376  300.50691      2527.1441      1.0177122      4455.7805      0.00021736376  21736.376    
     38500   238.59787      238.59767      0.00020742611  291.07117      2447.7934      1.0177122      4455.7805      0.00020742611  20742.611    
     38750   233.34987      233.34965      0.00021542341  284.66899      2393.953       1.0177122      4455.7805      0.00021542341  21542.341    
     39000   248.91043      248.9102       0.00023294728  303.65169      2553.5901      1.0177122      4455.7805      0.00023294728  23294.728    
     39250   238.67848      238.67823      0.00024192216  291.16946      2448.6194      1.0177122      4455.7805      0.00024192216  24192.216    
     39500   248.44162      248.44138      0.00023484631  303.07977      2548.7804      1.0177122      4455.7805      0.00023484631  23484.631    
     39750   270.524        270.52377      0.0002289135   330.01861      2775.3261      1.0177122      4455.7805      0.0002289135   22891.35     
     40000   229.3024       229.30219      0.0002109375   279.73139      2352.43        1.0177122      4455.7805      0.0002109375   21093.75     
     40250   227.64084      227.6406       0.00023924648  277.70438      2335.3833      1.0177122      4455.7805      0.00023924648  23924.648    
     40500   234.84436      234.84414      0.00021631295  286.49216      2409.2856      1.0177122      4455.7805      0.00021631295  21631.295    
     40750   276.73956      276.73935      0.00021246529  337.60115      2839.0922      1.0177122      4455.7805      0.00021246529  21246.529    
     41000   257.6821       257.68187      0.00023660433  314.35246      2643.5797      1.0177122      4455.7805      0.00023660433  23660.433    
     41250   250.31349      250.31327      0.00022280532  305.36332      2567.9844      1.0177122      4455.7805      0.00022280532  22280.532    
     41500   249.30758      249.30735      0.00022828727  304.13618      2557.6644      1.0177122      4455.7805      0.00022828727  22828.727    
     41750   261.66371      261.66346      0.0002471825   319.2097       2684.427       1.0177122      4455.7805      0.0002471825   24718.25     
     42000   253.12598      253.12576      0.0002240874   308.79435      2596.8381      1.0177122      4455.7805      0.0002240874   22408.74     
     42250   235.33027      235.33004      0.0002327232   287.08491      2414.2704      1.0177122      4455.7805      0.0002327232   23272.32     
     42500   261.95386      261.95364      0.00022483279  319.5637       2687.4041      1.0177122      4455.7805      0.00022483279  22483.279    
     42750   261.77957      261.77934      0.00022777658  319.35107      2685.6162      1.0177122      4455.7805      0.00022777658  22777.658    
     43000   252.40932      252.40906      0.00025688624  307.92004      2589.4854      1.0177122      4455.7805      0.00025688624  25688.624    
     43250   267.32896      267.32875      0.00020699269  326.12093      2742.5484      1.0177122      4455.7805      0.00020699269  20699.269    
     43500   255.08346      255.0832       0.00025340165  311.18229      2616.9196      1.0177122      4455.7805      0.00025340165  25340.165    
     43750   275.69966      275.69942      0.00024422102  336.33252      2828.4233      1.0177122      4455.7805      0.00024422102  24422.102    
     44000   266.9892       266.989        0.00019930512  325.70646      2739.0628      1.0177122      4455.7805      0.00019930512  19930.512    
     44250   235.31898      235.31876      0.00022464835  287.07115      2414.1543      1.0177122      4455.7805      0.00022464835  22464.835    
     44500   236.81263      236.81242      0.00020399977  288.89331      2429.4784      1.0177122      4455.7805      0.00020399977  20399.977    
     44750   240.20177      240.20154      0.00022464894  293.02778      2464.2473      1.0177122      4455.7805      0.00022464894  22464.894    
     45000   260.5931       260.59286      0.00024729914  317.90365      2673.4435      1.0177122      4455.7805      0.00024729914  24729.914    
     45250   251.65871      251.65849      0.00021647682  307.0044       2581.7855      1.0177122      4455.7805      0.00021647682  21647.682    
     45500   269.27975      269.27951      0.00023370126  328.50071      2762.561       1.0177122      4455.7805      0.00023370126  23370.126    
     45750   246.57749      246.57729      0.00020048872  300.80572      2529.6573      1.0177122      4455.7805      0.00020048872  20048.872    
     46000   282.7161       282.71588      0.00022758407  344.89206      2900.406       1.0177122      4455.7805      0.00022758407  22758.407    
     46250   251.90946      251.9092       0.0002542675   307.31024      2584.3569      1.0177122      4455.7805      0.0002542675   25426.75     
     46500   237.82258      237.82234      0.00024129221  290.12533      2439.8388      1.0177122      4455.7805      0.00024129221  24129.221    
     46750   261.24607      261.24584      0.00022736532  318.70024      2680.1426      1.0177122      4455.7805      0.00022736532  22736.532    
     47000   236.70624      236.706        0.00023948593  288.76349      2428.3863      1.0177122      4455.7805      0.00023948593  23948.593    
     47250   243.3726       243.37237      0.00022589087  296.89596      2496.7774      1.0177122      4455.7805      0.00022589087  22589.087    
     47500   266.95722      266.95699      0.00022148682  325.66742      2738.7342      1.0177122      4455.7805      0.00022148682  22148.682    
     47750   249.07125      249.07102      0.00022707836  303.84788      2555.2404      1.0177122      4455.7805      0.00022707836  22707.836    
     48000   254.6963       254.69607      0.00023188961  310.71002      2612.9481      1.0177122      4455.7805      0.00023188961  23188.961    
     48250   253.27097      253.27074      0.00023295969  308.97122      2598.325       1.0177122      4455.7805      0.00023295969  23295.969    
     48500   262.3415       262.34126      0.00023912103  320.03657      2691.3809      1.0177122      4455.7805      0.00023912103  23912.103    
     48750   234.2118       234.21157      0.00022791431  285.72047      2402.7954      1.0177122      4455.7805      0.00022791431  22791.431    
     49000   268.34546      268.34526      0.00020506849  327.36099      2752.9763      1.0177122      4455.7805      0.00020506849  20506.849    
     49250   259.75829      259.758        0.00028702954  316.88519      2664.8783      1.0177122      4455.7805      0.00028702954  28702.954    
     49500   249.84249      249.84228      0.00020893508  304.78875      2563.1528      1.0177122      4455.7805      0.00020893508  20893.508    
     49750   247.94917      247.94895      0.00022488758  302.47903      2543.7287      1.0177122      4455.7805      0.00022488758  22488.758    
     50000   258.73895      258.73874      0.00020470799  315.64177      2654.4225      1.0177122      4455.7805      0.00020470799  20470.799    
     50250   249.64348      249.64324      0.00023945369  304.54594      2561.1105      1.0177122      4455.7805      0.00023945369  23945.369    
     50500   242.74421      242.74399      0.00022776341  296.12937      2490.3302      1.0177122      4455.7805      0.00022776341  22776.341    
     50750   241.89836      241.89813      0.00023540299  295.09749      2481.6527      1.0177122      4455.7805      0.00023540299  23540.299    
     51000   239.38489      239.38466      0.00023037262  292.03124      2455.8665      1.0177122      4455.7805      0.00023037262  23037.262    
     51250   271.05652      271.05627      0.00024439101  330.66823      2780.7884      1.0177122      4455.7805      0.00024439101  24439.101    
     51500   232.21148      232.21125      0.0002292329   283.28023      2382.2741      1.0177122      4455.7805      0.0002292329   22923.29     
     51750   233.12897      233.12875      0.00022456909  284.3995       2391.6867      1.0177122      4455.7805      0.00022456909  22456.909    
     52000   249.20791      249.20769      0.00021282402  304.01461      2556.6423      1.0177122      4455.7805      0.00021282402  21282.402    
     52250   252.67707      252.67683      0.00023644103  308.2467       2592.2326      1.0177122      4455.7805      0.00023644103  23644.103    
     52500   239.04382      239.04357      0.00024553998  291.61514      2452.367       1.0177122      4455.7805      0.00024553998  24553.998    
     52750   252.62547      252.62526      0.00021085253  308.18378      2591.7038      1.0177122      4455.7805      0.00021085253  21085.253    
     53000   241.29372      241.29353      0.0001937328   294.35992      2475.4504      1.0177122      4455.7805      0.0001937328   19373.28     
     53250   258.4178       258.41758      0.0002239772   315.24997      2651.1278      1.0177122      4455.7805      0.0002239772   22397.72     
     53500   238.86933      238.8691       0.00023086762  291.4023       2450.5781      1.0177122      4455.7805      0.00023086762  23086.762    
     53750   281.641        281.64075      0.00024136762  343.5805       2889.3758      1.0177122      4455.7805      0.00024136762  24136.762    
     54000   257.50373      257.50346      0.00026356528  314.13482      2641.7489      1.0177122      4455.7805      0.00026356528  26356.528    
     54250   263.16243      263.16222      0.0002130078   321.03808      2699.8032      1.0177122      4455.7805      0.0002130078   21300.78     
     54500   245.07502      245.07479      0.00022462674  298.97278      2514.2424      1.0177122      4455.7805      0.00022462674  22462.674    
     54750   257.3205       257.32028      0.00021935445  313.91136      2639.8707      1.0177122      4455.7805      0.00021935445  21935.445    
     55000   263.71564      263.71541      0.00023157123  321.71293      2705.4782      1.0177122      4455.7805      0.00023157123  23157.123    
     55250   253.60617      253.60595      0.00022107294  309.38015      2601.7643      1.0177122      4455.7805      0.00022107294  22107.294    
     55500   271.30352      271.30328      0.00024119225  330.96956      2783.3235      1.0177122      4455.7805      0.00024119225  24119.225    
     55750   257.62041      257.62018      0.00023026932  314.27721      2642.9467      1.0177122      4455.7805      0.00023026932  23026.932    
     56000   268.70873      268.70851      0.0002254126   327.80413      2756.703       1.0177122      4455.7805      0.0002254126   22541.26     
     56250   238.55239      238.55215      0.00024486832  291.01564      2447.3258      1.0177122      4455.7805      0.00024486832  24486.832    
     56500   262.43413      262.43389      0.00024086384  320.14956      2692.3305      1.0177122      4455.7805      0.00024086384  24086.384    
     56750   263.51275      263.51254      0.000210522    321.46545      2703.3974      1.0177122      4455.7805      0.000210522    21052.2      
     57000   246.07873      246.07851      0.00022187026  300.19724      2524.5396      1.0177122      4455.7805      0.00022187026  22187.026    
     57250   250.78352      250.78329      0.00022374442  305.93672      2572.8067      1.0177122      4455.7805      0.00022374442  22374.442    
     57500   226.68014      226.67991      0.00023065654  276.5324       2325.5276      1.0177122      4455.7805      0.00023065654  23065.654    
     57750   245.53778      245.53755      0.00023104288  299.53731      2518.9902      1.0177122      4455.7805      0.00023104288  23104.288    
     58000   239.68149      239.68127      0.00022449063  292.39309      2458.9095      1.0177122      4455.7805      0.00022449063  22449.063    
     58250   241.12886      241.12862      0.00023815177  294.15874      2473.7583      1.0177122      4455.7805      0.00023815177  23815.177    
     58500   251.61514      251.6149       0.00024190331  306.95121      2581.3374      1.0177122      4455.7805      0.00024190331  24190.331    
     58750   252.91707      252.91687      0.0002071758   308.53952      2594.6957      1.0177122      4455.7805      0.0002071758   20717.58     
     59000   237.47756      237.47732      0.00024234311  289.70443      2436.2991      1.0177122      4455.7805      0.00024234311  24234.311    
     59250   263.42864      263.4284       0.00023653174  321.3628       2702.5338      1.0177122      4455.7805      0.00023653174  23653.174    
     59500   249.38931      249.38908      0.00023169587  304.23589      2558.5029      1.0177122      4455.7805      0.00023169587  23169.587    
     59750   241.88273      241.88252      0.00020714334  295.07845      2481.4932      1.0177122      4455.7805      0.00020714334  20714.334    
     60000   241.28094      241.28072      0.00021864475  294.3443       2475.3189      1.0177122      4455.7805      0.00021864475  21864.475    
     60250   240.32349      240.32324      0.00025087182  293.17625      2465.4953      1.0177122      4455.7805      0.00025087182  25087.182    
     60500   262.46966      262.46941      0.00024468923  320.1929       2692.6952      1.0177122      4455.7805      0.00024468923  24468.923    
     60750   256.66351      256.66325      0.00025662391  313.10983      2633.1292      1.0177122      4455.7805      0.00025662391  25662.391    
     61000   250.10686      250.10665      0.00020786289  305.11126      2565.8649      1.0177122      4455.7805      0.00020786289  20786.289    
     61250   248.90424      248.90399      0.00024794082  303.64411      2553.5266      1.0177122      4455.7805      0.00024794082  24794.082    
     61500   232.42917      232.42895      0.00022310345  283.5458       2384.5076      1.0177122      4455.7805      0.00022310345  22310.345    
     61750   270.17872      270.17847      0.00025015247  329.59737      2771.7829      1.0177122      4455.7805      0.00025015247  25015.247    
     62000   252.65849      252.65827      0.00021785903  308.22405      2592.0423      1.0177122      4455.7805      0.00021785903  21785.903    
     62250   245.81016      245.80992      0.00024129998  299.86958      2521.7842      1.0177122      4455.7805      0.00024129998  24129.998    
     62500   245.9784       245.97817      0.00023725012  300.07483      2523.5103      1.0177122      4455.7805      0.00023725012  23725.012    
     62750   262.3929       262.39267      0.00023060063  320.09929      2691.9084      1.0177122      4455.7805      0.00023060063  23060.063    
     63000   246.93039      246.93015      0.00024342685  301.23618      2533.2766      1.0177122      4455.7805      0.00024342685  24342.685    
     63250   252.45278      252.45259      0.00019372585  307.97313      2589.9325      1.0177122      4455.7805      0.00019372585  19372.585    
     63500   265.61669      265.61649      0.00020094794  324.0321       2724.9818      1.0177122      4455.7805      0.00020094794  20094.794    
     63750   254.09473      254.09448      0.00024240392  309.97612      2606.7762      1.0177122      4455.7805      0.00024240392  24240.392    
     64000   255.58845      255.5882       0.00024906318  311.79834      2622.1007      1.0177122      4455.7805      0.00024906318  24906.318    
     64250   239.00429      239.00407      0.00021645683  291.56696      2451.9621      1.0177122      4455.7805      0.00021645683  21645.683    
     64500   237.83625      237.83602      0.00023193979  290.14202      2439.9794      1.0177122      4455.7805      0.00023193979  23193.979    
     64750   253.84884      253.8486       0.0002407375   309.67616      2604.2535      1.0177122      4455.7805      0.0002407375   24073.75     
     65000   246.81845      246.81819      0.0002649077   301.09959      2532.1279      1.0177122      4455.7805      0.0002649077   26490.77     
     65250   239.65856      239.65833      0.0002349449   292.3651       2458.6741      1.0177122      4455.7805      0.0002349449   23494.49     
     65500   255.44355      255.44331      0.0002324671   311.62159      2620.6142      1.0177122      4455.7805      0.0002324671   23246.71     
     65750   260.09831      260.0981       0.00020847148  317.30009      2668.3684      1.0177122      4455.7805      0.00020847148  20847.148    
     66000   237.7574       237.7572       0.00020578974  290.04586      2439.1707      1.0177122      4455.7805      0.00020578974  20578.974    
     66250   251.50939      251.50915      0.00024540364  306.82221      2580.2526      1.0177122      4455.7805      0.00024540364  24540.364    
     66500   252.12002      252.11978      0.00023930323  307.56713      2586.5177      1.0177122      4455.7805      0.00023930323  23930.323    
     66750   275.42273      275.4225       0.0002336414   335.99469      2825.5822      1.0177122      4455.7805      0.0002336414   23364.14     
     67000   251.57835      251.57811      0.00023227287  306.90634      2580.9608      1.0177122      4455.7805      0.00023227287  23227.287    
     67250   243.52392      243.52368      0.0002306906   297.08054      2498.3294      1.0177122      4455.7805      0.0002306906   23069.06     
     67500   249.30269      249.30246      0.00023095292  304.13021      2557.6143      1.0177122      4455.7805      0.00023095292  23095.292    
     67750   257.53208      257.53185      0.00023311587  314.16945      2642.0407      1.0177122      4455.7805      0.00023311587  23311.587    
     68000   255.181        255.18076      0.0002374981   311.30129      2617.9202      1.0177122      4455.7805      0.0002374981   23749.81     
     68250   251.2059       251.20571      0.00018540284  306.45204      2577.1405      1.0177122      4455.7805      0.00018540284  18540.284    
     68500   236.54799      236.54777      0.00021876058  288.57045      2426.763       1.0177122      4455.7805      0.00021876058  21876.058    
     68750   244.41769      244.41746      0.0002284849   298.17089      2507.4988      1.0177122      4455.7805      0.0002284849   22848.49     
     69000   249.99343      249.99321      0.00021833994  304.97288      2564.701       1.0177122      4455.7805      0.00021833994  21833.994    
     69250   234.85636      234.85612      0.00023433306  286.50677      2409.4081      1.0177122      4455.7805      0.00023433306  23433.306    
     69500   257.78027      257.78005      0.00021288563  314.47224      2644.5868      1.0177122      4455.7805      0.00021288563  21288.563    
     69750   231.43498      231.43471      0.00026899507  282.33291      2374.3071      1.0177122      4455.7805      0.00026899507  26899.507    
     70000   249.13931      249.13908      0.00023417441  303.9309       2555.9386      1.0177122      4455.7805      0.00023417441  23417.441    
     70250   257.63636      257.63613      0.00023300577  314.29666      2643.1102      1.0177122      4455.7805      0.00023300577  23300.577    
     70500   237.09017      237.0899       0.00026677881  289.23181      2432.3242      1.0177122      4455.7805      0.00026677881  26677.881    
     70750   263.20641      263.20616      0.00024532191  321.09168      2700.2537      1.0177122      4455.7805      0.00024532191  24532.191    
     71000   239.84937      239.84916      0.00020954528  292.59791      2460.6325      1.0177122      4455.7805      0.00020954528  20954.528    
     71250   242.68167      242.68146      0.00020949199  296.05309      2489.689       1.0177122      4455.7805      0.00020949199  20949.199    
     71500   238.64968      238.64949      0.00019751928  291.13439      2448.325       1.0177122      4455.7805      0.00019751928  19751.928    
     71750   236.5332       236.53298      0.00022216576  288.55241      2426.6111      1.0177122      4455.7805      0.00022216576  22216.576    
     72000   256.70528      256.70503      0.00024470418  313.16079      2633.5581      1.0177122      4455.7805      0.00024470418  24470.418    
     72250   255.23107      255.23083      0.00024746697  311.36238      2618.434       1.0177122      4455.7805      0.00024746697  24746.697    
     72500   249.91642      249.9162       0.00022271176  304.87893      2563.9109      1.0177122      4455.7805      0.00022271176  22271.176    
     72750   274.45728      274.45707      0.00021339139  334.81694      2815.6783      1.0177122      4455.7805      0.00021339139  21339.139    
     73000   252.63314      252.63289      0.00024534285  308.19309      2591.7814      1.0177122      4455.7805      0.00024534285  24534.285    
     73250   261.28543      261.28519      0.00023513126  318.74824      2680.5467      1.0177122      4455.7805      0.00023513126  23513.126    
     73500   243.55021      243.54997      0.00023835843  297.11261      2498.5992      1.0177122      4455.7805      0.00023835843  23835.843    
     73750   253.76828      253.76803      0.00024550283  309.57787      2603.4267      1.0177122      4455.7805      0.00024550283  24550.283    
     74000   252.37383      252.37361      0.00022934031  307.87678      2589.122       1.0177122      4455.7805      0.00022934031  22934.031    
     74250   232.00124      232.00101      0.00022854785  283.02375      2380.1172      1.0177122      4455.7805      0.00022854785  22854.785    
     74500   257.82431      257.8241       0.00021026547  314.52598      2645.039       1.0177122      4455.7805      0.00021026547  21026.547    
     74750   247.68159      247.68139      0.00020195484  302.15263      2540.9847      1.0177122      4455.7805      0.00020195484  20195.484    
     75000   251.16823      251.16799      0.0002349079   306.40603      2576.7528      1.0177122      4455.7805      0.0002349079   23490.79     
     75250   247.96641      247.96618      0.00023508408  302.50005      2543.9053      1.0177122      4455.7805      0.00023508408  23508.408    
     75500   236.39781      236.39758      0.00023151511  288.38723      2425.2222      1.0177122      4455.7805      0.00023151511  23151.511    
     75750   243.03201      243.03177      0.00023957061  296.48044      2493.2826      1.0177122      4455.7805      0.00023957061  23957.061    
     76000   259.80993      259.80969      0.00023427866  316.94825      2665.4096      1.0177122      4455.7805      0.00023427866  23427.866    
     76250   227.95445      227.95423      0.00022191854  278.08698      2338.6012      1.0177122      4455.7805      0.00022191854  22191.854    
     76500   261.42186      261.42164      0.00021468521  318.9147       2681.9462      1.0177122      4455.7805      0.00021468521  21468.521    
     76750   237.33367      237.33343      0.00024764843  289.52889      2434.823       1.0177122      4455.7805      0.00024764843  24764.843    
     77000   234.11596      234.11571      0.00024586276  285.60353      2401.8123      1.0177122      4455.7805      0.00024586276  24586.276    
     77250   243.25364      243.25341      0.00023184276  296.75083      2495.5564      1.0177122      4455.7805      0.00023184276  23184.276    
     77500   252.57269      252.57248      0.00021164348  308.1194       2591.1627      1.0177122      4455.7805      0.00021164348  21164.348    
     77750   248.54085      248.54063      0.00021318989  303.20084      2549.799       1.0177122      4455.7805      0.00021318989  21318.989    
     78000   238.0172       238.017        0.00020219932  290.36281      2441.8362      1.0177122      4455.7805      0.00020219932  20219.932    
     78250   246.69697      246.69673      0.00024305187  300.95142      2530.882       1.0177122      4455.7805      0.00024305187  24305.187    
     78500   251.51168      251.51144      0.00023516196  306.82501      2580.2765      1.0177122      4455.7805      0.00023516196  23516.196    
     78750   241.50859      241.50838      0.00021465966  294.62202      2477.6543      1.0177122      4455.7805      0.00021465966  21465.966    
     79000   246.85922      246.85898      0.00024397591  301.14935      2532.5469      1.0177122      4455.7805      0.00024397591  24397.591    
     79250   252.72423      252.72399      0.00024500126  308.30422      2592.7162      1.0177122      4455.7805      0.00024500126  24500.126    
     79500   241.7257       241.72544      0.00025892518  294.88682      2479.8808      1.0177122      4455.7805      0.00025892518  25892.518    
     79750   237.13955      237.1393       0.00025359149  289.29207      2432.8307      1.0177122      4455.7805      0.00025359149  25359.149    
     80000   257.43817      257.43794      0.00022179253  314.05489      2641.0771      1.0177122      4455.7805      0.00022179253  22179.253    
     80250   248.5675       248.56726      0.00024191007  303.23332      2550.0717      1.0177122      4455.7805      0.00024191007  24191.007    
     80500   251.20652      251.2063       0.00021725192  306.45276      2577.1463      1.0177122      4455.7805      0.00021725192  21725.192    
     80750   250.53642      250.53618      0.00023294073  305.63526      2570.2716      1.0177122      4455.7805      0.00023294073  23294.073    
     81000   258.2125       258.21229      0.00020907035  314.99954      2649.0216      1.0177122      4455.7805      0.00020907035  20907.035    
     81250   260.30209      260.30188      0.00021596636  317.54867      2670.4589      1.0177122      4455.7805      0.00021596636  21596.636    
     81500   236.35303      236.35281      0.00022309682  288.33261      2424.7624      1.0177122      4455.7805      0.00022309682  22309.682    
     81750   225.06813      225.06789      0.00023975642  274.56586      2308.9894      1.0177122      4455.7805      0.00023975642  23975.642    
     82000   239.20126      239.20104      0.00021749166  291.80724      2453.9833      1.0177122      4455.7805      0.00021749166  21749.166    
     82250   260.98145      260.98124      0.00021025867  318.37744      2677.4287      1.0177122      4455.7805      0.00021025867  21025.867    
     82500   229.30507      229.30481      0.00026133777  279.73459      2352.456       1.0177122      4455.7805      0.00026133777  26133.777    
     82750   248.98547      248.98527      0.00020084771  303.74327      2554.361       1.0177122      4455.7805      0.00020084771  20084.771    
     83000   231.61825      231.61803      0.00021817758  282.55654      2376.1883      1.0177122      4455.7805      0.00021817758  21817.758    
     83250   235.89719      235.89696      0.00023121398  287.77651      2420.0858      1.0177122      4455.7805      0.00023121398  23121.398    
     83500   253.35031      253.35006      0.00024894232  309.06798      2599.1384      1.0177122      4455.7805      0.00024894232  24894.232    
     83750   267.90029      267.90003      0.00025636194  326.81785      2748.4087      1.0177122      4455.7805      0.00025636194  25636.194    
     84000   228.35365      228.3534       0.00024412925  278.57394      2342.6958      1.0177122      4455.7805      0.00024412925  24412.925    
     84250   255.11398      255.11373      0.0002425786   311.21953      2617.2332      1.0177122      4455.7805      0.0002425786   24257.86     
     84500   246.39025      246.38999      0.00026330655  300.57722      2527.735       1.0177122      4455.7805      0.00026330655  26330.655    
     84750   259.86317      259.86294      0.00022759266  317.0132       2665.9556      1.0177122      4455.7805      0.00022759266  22759.266    
     85000   239.71573      239.7155       0.0002350018   292.43484      2459.2606      1.0177122      4455.7805      0.0002350018   23500.18     
     85250   255.97428      255.97404      0.000238223    312.26904      2626.059       1.0177122      4455.7805      0.000238223    23822.3      
     85500   231.92574      231.9255       0.00023768221  282.93164      2379.3424      1.0177122      4455.7805      0.00023768221  23768.221    
     85750   260.43004      260.4298       0.0002459722   317.70473      2671.7706      1.0177122      4455.7805      0.0002459722   24597.22     
     86000   241.57909      241.57887      0.00022482734  294.70801      2478.3773      1.0177122      4455.7805      0.00022482734  22482.734    
     86250   248.51514      248.51489      0.00024661437  303.16944      2549.5345      1.0177122      4455.7805      0.00024661437  24661.437    
     86500   251.57188      251.57166      0.00021936095  306.89847      2580.8948      1.0177122      4455.7805      0.00021936095  21936.095    
     86750   236.80417      236.80394      0.00023098756  288.88297      2429.3908      1.0177122      4455.7805      0.00023098756  23098.756    
     87000   236.3802       236.37998      0.00021669045  288.36577      2425.0419      1.0177122      4455.7805      0.00021669045  21669.045    
     87250   245.2875       245.28726      0.00023626758  299.23198      2516.4223      1.0177122      4455.7805      0.00023626758  23626.758    
     87500   250.61068      250.61045      0.00023474429  305.72586      2571.0332      1.0177122      4455.7805      0.00023474429  23474.429    
     87750   268.26814      268.26787      0.00026829602  327.26658      2752.1815      1.0177122      4455.7805      0.00026829602  26829.602    
     88000   249.89653      249.89628      0.00025507823  304.85463      2563.7061      1.0177122      4455.7805      0.00025507823  25507.823    
     88250   247.02211      247.02187      0.00023507546  301.34807      2534.2175      1.0177122      4455.7805      0.00023507546  23507.546    
     88500   242.92152      242.9213       0.0002169006   296.34568      2492.1495      1.0177122      4455.7805      0.0002169006   21690.06     
     88750   242.49797      242.49774      0.00022720161  295.82897      2487.8043      1.0177122      4455.7805      0.00022720161  22720.161    
     89000   247.41769      247.41748      0.00020898936  301.83069      2538.2765      1.0177122      4455.7805      0.00020898936  20898.936    
     89250   226.71825      226.718        0.00025053408  276.57887      2325.9181      1.0177122      4455.7805      0.00025053408  25053.408    
     89500   255.03366      255.03344      0.00022254666  311.12158      2616.4088      1.0177122      4455.7805      0.00022254666  22254.666    
     89750   262.88229      262.88204      0.00024479497  320.69628      2696.9288      1.0177122      4455.7805      0.00024479497  24479.497    
     90000   258.44147      258.44125      0.00021538083  315.27885      2651.3702      1.0177122      4455.7805      0.00021538083  21538.083    
     90250   253.34911      253.34889      0.00021643024  309.06656      2599.1275      1.0177122      4455.7805      0.00021643024  21643.024    
     90500   226.18884      226.18862      0.00022128232  275.93307      2320.4877      1.0177122      4455.7805      0.00022128232  22128.232    
     90750   266.95809      266.95787      0.00022469028  325.66848      2738.7434      1.0177122      4455.7805      0.00022469028  22469.028    
     91000   251.43041      251.43019      0.00022102721  306.72588      2579.4431      1.0177122      4455.7805      0.00022102721  22102.721    
     91250   246.30484      246.30461      0.00022381175  300.47307      2526.8592      1.0177122      4455.7805      0.00022381175  22381.175    
     91500   245.36222      245.36201      0.00021333214  299.32316      2517.1892      1.0177122      4455.7805      0.00021333214  21333.214    
     91750   257.70863      257.70838      0.00024213406  314.38481      2643.8517      1.0177122      4455.7805      0.00024213406  24213.406    
     92000   256.46501      256.46477      0.00023738078  312.86769      2631.0931      1.0177122      4455.7805      0.00023738078  23738.078    
     92250   259.5731       259.57289      0.00020870411  316.65936      2662.9802      1.0177122      4455.7805      0.00020870411  20870.411    
     92500   259.52771      259.52746      0.00024119297  316.60395      2662.5139      1.0177122      4455.7805      0.00024119297  24119.297    
     92750   230.44196      230.44172      0.00023859352  281.12153      2364.1201      1.0177122      4455.7805      0.00023859352  23859.352    
     93000   273.52518      273.52494      0.00023781803  333.67982      2806.1152      1.0177122      4455.7805      0.00023781803  23781.803    
     93250   258.12727      258.12701      0.00026833385  314.8955       2648.1457      1.0177122      4455.7805      0.00026833385  26833.385    
     93500   262.63148      262.63124      0.00024674834  320.39032      2694.3557      1.0177122      4455.7805      0.00024674834  24674.834    
     93750   260.49304      260.49282      0.00022178609  317.78161      2672.4175      1.0177122      4455.7805      0.00022178609  22178.609    
     94000   228.87429      228.87406      0.00023248889  279.20911      2348.0374      1.0177122      4455.7805      0.00023248889  23248.889    
     94250   227.33702      227.33679      0.00022770978  277.33375      2332.2668      1.0177122      4455.7805      0.00022770978  22770.978    
     94500   245.312        245.31176      0.00024363141  299.26186      2516.6728      1.0177122      4455.7805      0.00024363141  24363.141    
     94750   241.50486      241.50465      0.00021428934  294.61747      2477.6161      1.0177122      4455.7805      0.00021428934  21428.934    
     95000   222.38408      222.38385      0.0002247563   271.29154      2281.4538      1.0177122      4455.7805      0.0002247563   22475.63     
     95250   220.2861       220.28587      0.00022099281  268.73217      2259.9307      1.0177122      4455.7805      0.00022099281  22099.281    
     95500   250.22254      250.22233      0.00020909852  305.25239      2567.0517      1.0177122      4455.7805      0.00020909852  20909.852    
     95750   240.64382      240.6436       0.00021512257  293.56706      2468.7826      1.0177122      4455.7805      0.00021512257  21512.257    
     96000   241.3892       241.38896      0.00024027468  294.47634      2476.4292      1.0177122      4455.7805      0.00024027468  24027.468    
     96250   235.54878      235.54854      0.00024049035  287.35147      2416.5112      1.0177122      4455.7805      0.00024049035  24049.035    
     96500   252.15328      252.15304      0.00023668119  307.60771      2586.8586      1.0177122      4455.7805      0.00023668119  23668.119    
     96750   248.31509      248.31485      0.00023609366  302.9254       2547.4823      1.0177122      4455.7805      0.00023609366  23609.366    
     97000   244.73979      244.73957      0.00021662907  298.56384      2510.8037      1.0177122      4455.7805      0.00021662907  21662.907    
     97250   257.80813      257.80792      0.00021576535  314.50623      2644.8729      1.0177122      4455.7805      0.00021576535  21576.535    
     97500   261.49762      261.49739      0.00022502043  319.00711      2682.7237      1.0177122      4455.7805      0.00022502043  22502.043    
     97750   262.51983      262.5196       0.00022554923  320.25413      2693.2101      1.0177122      4455.7805      0.00022554923  22554.923    
     98000   252.57346      252.57322      0.00024302013  308.12029      2591.1693      1.0177122      4455.7805      0.00024302013  24302.013    
     98250   223.72646      223.72623      0.00022941081  272.92915      2295.2256      1.0177122      4455.7805      0.00022941081  22941.081    
     98500   261.89538      261.89512      0.00026249269  319.49231      2686.8034      1.0177122      4455.7805      0.00026249269  26249.269    
     98750   247.51297      247.51273      0.00023462425  301.94688      2539.2537      1.0177122      4455.7805      0.00023462425  23462.425    
     99000   246.46656      246.46631      0.00024687688  300.67033      2528.5181      1.0177122      4455.7805      0.00024687688  24687.688    
     99250   267.24286      267.24261      0.00024504211  326.01585      2741.664       1.0177122      4455.7805      0.00024504211  24504.211    
     99500   272.47435      272.47412      0.00023649269  332.39789      2795.3344      1.0177122      4455.7805      0.00023649269  23649.269    
     99750   238.00764      238.00737      0.00026481788  290.35106      2441.7368      1.0177122      4455.7805      0.00026481788  26481.788    
    100000   238.42326      238.42303      0.00023580761  290.85813      2446.0013      1.0177122      4455.7805      0.00023580761  23580.761    
    100250   260.14716      260.14695      0.00021029634  317.35967      2668.8695      1.0177122      4455.7805      0.00021029634  21029.634    
    100500   240.10349      240.10326      0.00022560641  292.90789      2463.2389      1.0177122      4455.7805      0.00022560641  22560.641    
    100750   263.79388      263.79366      0.00021586452  321.80839      2706.2812      1.0177122      4455.7805      0.00021586452  21586.452    
    101000   241.15089      241.15064      0.00025019341  294.18561      2473.9839      1.0177122      4455.7805      0.00025019341  25019.341    
    101250   258.4062       258.40596      0.00024263892  315.23579      2651.008       1.0177122      4455.7805      0.00024263892  24263.892    
    101500   236.1809       236.18066      0.00024421531  288.1226       2422.9965      1.0177122      4455.7805      0.00024421531  24421.531    
    101750   278.21078      278.21056      0.00022498312  339.39592      2854.1853      1.0177122      4455.7805      0.00022498312  22498.312    
    102000   239.78621      239.78595      0.00025345544  292.5208       2459.9835      1.0177122      4455.7805      0.00025345544  25345.544    
    102250   249.33346      249.33325      0.00021107718  304.16778      2557.9305      1.0177122      4455.7805      0.00021107718  21107.718    
    102500   231.24608      231.24585      0.000230854    282.10252      2372.37        1.0177122      4455.7805      0.000230854    23085.4      
    102750   224.67207      224.67183      0.00024558277  274.0827       2304.9264      1.0177122      4455.7805      0.00024558277  24558.277    
    103000   231.20442      231.2042       0.00021713259  282.05171      2371.9427      1.0177122      4455.7805      0.00021713259  21713.259    
    103250   244.26184      244.26163      0.00021279835  297.98078      2505.9004      1.0177122      4455.7805      0.00021279835  21279.835    
    103500   257.00257      257.00235      0.00022004451  313.52351      2636.6084      1.0177122      4455.7805      0.00022004451  22004.451    
    103750   254.32302      254.32282      0.00020703405  310.25467      2609.1193      1.0177122      4455.7805      0.00020703405  20703.405    
    104000   245.29557      245.29534      0.00023314602  299.24183      2516.5048      1.0177122      4455.7805      0.00023314602  23314.602    
    104250   257.20069      257.20046      0.00023180834  313.76518      2638.6411      1.0177122      4455.7805      0.00023180834  23180.834    
    104500   264.61824      264.618        0.00023775368  322.81402      2714.7377      1.0177122      4455.7805      0.00023775368  23775.368    
    104750   267.05255      267.05232      0.00023227368  325.78371      2739.7119      1.0177122      4455.7805      0.00023227368  23227.368    
    105000   241.66808      241.66787      0.00020670135  294.8166       2479.2908      1.0177122      4455.7805      0.00020670135  20670.135    
    105250   261.07552      261.07532      0.00020217016  318.49222      2678.3934      1.0177122      4455.7805      0.00020217016  20217.016    
    105500   238.12832      238.1281       0.00022047533  290.49834      2442.976       1.0177122      4455.7805      0.00022047533  22047.533    
    105750   235.10678      235.10656      0.00022199116  286.81228      2411.9773      1.0177122      4455.7805      0.00022199116  22199.116    
    106000   230.73038      230.73013      0.00024931905  281.47337      2367.0789      1.0177122      4455.7805      0.00024931905  24931.905    
    106250   250.35873      250.35851      0.00022128316  305.41851      2568.4484      1.0177122      4455.7805      0.00022128316  22128.316    
    106500   262.64291      262.64267      0.00023229976  320.40427      2694.473       1.0177122      4455.7805      0.00023229976  23229.976    
    106750   261.6154       261.61518      0.00021761231  319.1508       2683.9321      1.0177122      4455.7805      0.00021761231  21761.231    
[...]
    468500   257.70028      257.70004      0.00023912106  314.37463      2643.7662      1.0177122      4455.7805      0.00023912106  23912.106    
    468750   246.46207      246.46186      0.00020862782  300.66489      2528.4725      1.0177122      4455.7805      0.00020862782  20862.782    
    469000   257.9962       257.99598      0.00022002835  314.73566      2646.8022      1.0177122      4455.7805      0.00022002835  22002.835    
    469250   252.7724       252.77218      0.00022318539  308.36301      2593.2108      1.0177122      4455.7805      0.00022318539  22318.539    
    469500   244.11922      244.11902      0.00020569572  297.8068       2504.4371      1.0177122      4455.7805      0.00020569572  20569.572    
    469750   230.07016      230.06995      0.00020811372  280.668        2360.3065      1.0177122      4455.7805      0.00020811372  20811.372    
    470000   240.96697      240.96675      0.0002220635   293.96128      2472.0977      1.0177122      4455.7805      0.0002220635   22206.35     
    470250   250.48755      250.48732      0.00023141792  305.57566      2569.7703      1.0177122      4455.7805      0.00023141792  23141.792    
    470500   240.51719      240.51694      0.00024935666  293.41254      2467.4829      1.0177122      4455.7805      0.00024935666  24935.666    
    470750   263.55873      263.5585       0.00023109977  321.52151      2703.8685      1.0177122      4455.7805      0.00023109977  23109.977    
    471000   245.35111      245.35085      0.00026702008  299.30954      2517.0737      1.0177122      4455.7805      0.00026702008  26702.008    
    471250   274.34228      274.34206      0.00021504286  334.67664      2814.4984      1.0177122      4455.7805      0.00021504286  21504.286    
    471500   239.69059      239.69039      0.00020046947  292.40421      2459.0037      1.0177122      4455.7805      0.00020046947  20046.947    
    471750   238.10485      238.10462      0.00023378024  290.46969      2442.7347      1.0177122      4455.7805      0.00023378024  23378.024    
    472000   227.21211      227.21189      0.00021730445  277.18139      2330.9857      1.0177122      4455.7805      0.00021730445  21730.445    
    472250   255.84481      255.84458      0.00023483172  312.11111      2624.7304      1.0177122      4455.7805      0.00023483172  23483.172    
    472500   255.03582      255.03558      0.00024137269  311.12419      2616.431       1.0177122      4455.7805      0.00024137269  24137.269    
    472750   275.46222      275.46199      0.00022743298  336.04287      2825.9878      1.0177122      4455.7805      0.00022743298  22743.298    
    473000   248.66811      248.66788      0.00023605316  303.35607      2551.104       1.0177122      4455.7805      0.00023605316  23605.316    
    473250   245.44014      245.4399       0.00024005192  299.41818      2517.9884      1.0177122      4455.7805      0.00024005192  24005.192    
    473500   227.45793      227.4577       0.00022990078  277.48125      2333.5066      1.0177122      4455.7805      0.00022990078  22990.078    
    473750   240.00629      240.00607      0.00022391133  292.78931      2462.2422      1.0177122      4455.7805      0.00022391133  22391.133    
    474000   252.94069      252.94047      0.00021491909  308.56831      2594.9373      1.0177122      4455.7805      0.00021491909  21491.909    
    474250   247.81024      247.81002      0.00022196108  302.30955      2542.3033      1.0177122      4455.7805      0.00022196108  22196.108    
    474500   245.13645      245.13622      0.00023245146  299.04771      2514.8726      1.0177122      4455.7805      0.00023245146  23245.146    
    474750   257.03014      257.02993      0.00021252639  313.55714      2636.8916      1.0177122      4455.7805      0.00021252639  21252.639    
    475000   248.07482      248.07459      0.00022922492  302.6323       2545.0176      1.0177122      4455.7805      0.00022922492  22922.492    
    475250   239.855        239.85477      0.00022917909  292.60474      2460.6893      1.0177122      4455.7805      0.00022917909  22917.909    
    475500   293.77608      293.77585      0.00023343428  358.3844       3013.8712      1.0177122      4455.7805      0.00023343428  23343.428    
    475750   263.02229      263.02207      0.0002205416   320.8671       2698.3652      1.0177122      4455.7805      0.0002205416   22054.16     
    476000   238.70386      238.70365      0.00021058917  291.20046      2448.8807      1.0177122      4455.7805      0.00021058917  21058.917    
    476250   237.57872      237.57849      0.00022933066  289.82786      2437.3375      1.0177122      4455.7805      0.00022933066  22933.066    
    476500   230.11807      230.11784      0.0002320104   280.72642      2360.797       1.0177122      4455.7805      0.0002320104   23201.04     
    476750   271.07699      271.07674      0.00024560871  330.6932       2780.9986      1.0177122      4455.7805      0.00024560871  24560.871    
    477000   261.94328      261.94308      0.00020335165  319.55082      2687.2959      1.0177122      4455.7805      0.00020335165  20335.165    
    477250   263.6733       263.67305      0.00024743231  321.66125      2705.0435      1.0177122      4455.7805      0.00024743231  24743.231    
    477500   254.93983      254.93961      0.00021973312  311.00712      2615.4466      1.0177122      4455.7805      0.00021973312  21973.312    
    477750   242.4269       242.42669      0.00020709075  295.74229      2487.0756      1.0177122      4455.7805      0.00020709075  20709.075    
    478000   260.22989      260.22966      0.00023855329  317.46057      2669.7177      1.0177122      4455.7805      0.00023855329  23855.329    
    478250   247.40371      247.40348      0.00022941113  301.8136       2538.1327      1.0177122      4455.7805      0.00022941113  22941.113    
    478500   258.69651      258.69628      0.0002285296   315.58996      2653.9864      1.0177122      4455.7805      0.0002285296   22852.96     
    478750   260.50805      260.50784      0.00021899653  317.79993      2672.5715      1.0177122      4455.7805      0.00021899653  21899.653    
    479000   256.22712      256.22692      0.0002027895   312.57754      2628.6535      1.0177122      4455.7805      0.0002027895   20278.95     
    479250   239.15866      239.1584       0.00025655667  291.75523      2453.5455      1.0177122      4455.7805      0.00025655667  25655.667    
    479500   259.61842      259.6182       0.00021545255  316.71464      2663.4451      1.0177122      4455.7805      0.00021545255  21545.255    
    479750   249.79935      249.79911      0.00024577199  304.73609      2562.7092      1.0177122      4455.7805      0.00024577199  24577.199    
    480000   264.9599       264.95967      0.00022275823  323.23083      2718.2432      1.0177122      4455.7805      0.00022275823  22275.823    
    480250   262.67573      262.6755       0.00022801196  320.44432      2694.81        1.0177122      4455.7805      0.00022801196  22801.196    
    480500   257.70822      257.70802      0.00020059763  314.38436      2643.8484      1.0177122      4455.7805      0.00020059763  20059.763    
    480750   250.71844      250.71821      0.00023460132  305.85732      2572.1384      1.0177122      4455.7805      0.00023460132  23460.132    
    481000   265.25022      265.25         0.00021685578  323.58502      2721.222       1.0177122      4455.7805      0.00021685578  21685.578    
    481250   248.7181       248.71786      0.00024011671  303.41704      2551.617       1.0177122      4455.7805      0.00024011671  24011.671    
    481500   249.41553      249.41527      0.00025838588  304.26783      2558.7714      1.0177122      4455.7805      0.00025838588  25838.588    
    481750   249.2491       249.24889      0.00020463954  304.06487      2557.0652      1.0177122      4455.7805      0.00020463954  20463.954    
    482000   252.25363      252.2534       0.00022464255  307.73014      2587.8887      1.0177122      4455.7805      0.00022464255  22464.255    
    482250   267.79315      267.79294      0.00021190694  326.68721      2747.3107      1.0177122      4455.7805      0.00021190694  21190.694    
    482500   276.47044      276.47019      0.00024145057  337.2728       2836.3305      1.0177122      4455.7805      0.00024145057  24145.057    
    482750   248.20101      248.20076      0.00025285155  302.78622      2546.3123      1.0177122      4455.7805      0.00025285155  25285.155    
    483000   273.57006      273.56983      0.00023110036  333.73458      2806.5753      1.0177122      4455.7805      0.00023110036  23110.036    
    483250   255.41035      255.41012      0.0002332072   311.5811       2620.2735      1.0177122      4455.7805      0.0002332072   23320.72     
    483500   255.83224      255.83199      0.00024573538  312.09575      2624.6015      1.0177122      4455.7805      0.00024573538  24573.538    
    483750   234.60848      234.60826      0.00022616976  286.20439      2406.8654      1.0177122      4455.7805      0.00022616976  22616.976    
    484000   249.43283      249.4326       0.00023505434  304.28897      2558.9491      1.0177122      4455.7805      0.00023505434  23505.434    
    484250   252.39748      252.39725      0.00023398811  307.90563      2589.3641      1.0177122      4455.7805      0.00023398811  23398.811    
    484500   242.5082       242.50791      0.00029130378  295.84138      2487.9077      1.0177122      4455.7805      0.00029130378  29130.378    
    484750   263.12998      263.12977      0.00021004376  320.9985       2699.4706      1.0177122      4455.7805      0.00021004376  21004.376    
    485000   232.549        232.54879      0.00020792663  283.692        2385.7375      1.0177122      4455.7805      0.00020792663  20792.663    
    485250   226.52915      226.52893      0.00022343501  276.34823      2323.979       1.0177122      4455.7805      0.00022343501  22343.501    
    485500   250.52497      250.52475      0.00022290172  305.62131      2570.1541      1.0177122      4455.7805      0.00022290172  22290.172    
    485750   243.40015      243.39988      0.00026546263  296.92952      2497.0589      1.0177122      4455.7805      0.00026546263  26546.263    
    486000   259.46973      259.46953      0.00020274793  316.53327      2661.9201      1.0177122      4455.7805      0.00020274793  20274.793    
    486250   248.02038      248.02014      0.00023518191  302.56588      2544.4592      1.0177122      4455.7805      0.00023518191  23518.191    
    486500   268.12751      268.12729      0.00022281389  327.09508      2750.7404      1.0177122      4455.7805      0.00022281389  22281.389    
    486750   270.99231      270.99206      0.00024298202  330.5899       2780.1298      1.0177122      4455.7805      0.00024298202  24298.202    
    487000   243.30999      243.30977      0.00022459022  296.81958      2496.1349      1.0177122      4455.7805      0.00022459022  22459.022    
    487250   273.79995      273.79972      0.00022994207  334.01503      2808.9342      1.0177122      4455.7805      0.00022994207  22994.207    
    487500   240.58409      240.58385      0.00023849802  293.49417      2468.1693      1.0177122      4455.7805      0.00023849802  23849.802    
    487750   265.68136      265.68115      0.00021795546  324.11098      2725.645       1.0177122      4455.7805      0.00021795546  21795.546    
    488000   254.67478      254.67457      0.00020628274  310.68378      2612.7278      1.0177122      4455.7805      0.00020628274  20628.274    
    488250   233.27913      233.27889      0.00023715187  284.58267      2393.2271      1.0177122      4455.7805      0.00023715187  23715.187    
    488500   244.32869      244.32847      0.0002204484   298.06232      2506.5857      1.0177122      4455.7805      0.0002204484   22044.84     
    488750   249.22909      249.22884      0.00025175618  304.0404       2556.8589      1.0177122      4455.7805      0.00025175618  25175.618    
    489000   226.03539      226.03514      0.00024646942  275.74584      2318.9125      1.0177122      4455.7805      0.00024646942  24646.942    
    489250   248.45996      248.45969      0.00026707313  303.1021       2548.9678      1.0177122      4455.7805      0.00026707313  26707.313    
    489500   255.9305       255.93027      0.00022820394  312.21565      2625.6098      1.0177122      4455.7805      0.00022820394  22820.394    
    489750   254.89906      254.89884      0.00022058603  310.95738      2615.0282      1.0177122      4455.7805      0.00022058603  22058.603    
    490000   254.32132      254.32111      0.00020647238  310.25259      2609.1017      1.0177122      4455.7805      0.00020647238  20647.238    
    490250   243.50952      243.50931      0.00021283897  297.063        2498.182       1.0177122      4455.7805      0.00021283897  21283.897    
    490500   227.53759      227.53736      0.00022983719  277.57843      2334.3239      1.0177122      4455.7805      0.00022983719  22983.719    
    490750   246.10831      246.10809      0.00022328692  300.23332      2524.8432      1.0177122      4455.7805      0.00022328692  22328.692    
    491000   226.98171      226.98147      0.0002346938   276.90029      2328.6216      1.0177122      4455.7805      0.0002346938   23469.38     
    491250   227.11135      227.11112      0.00023375608  277.05845      2329.9513      1.0177122      4455.7805      0.00023375608  23375.608    
    491500   220.84004      220.83983      0.00021427178  269.40795      2265.6135      1.0177122      4455.7805      0.00021427178  21427.178    
    491750   264.48373      264.4835       0.00023081749  322.64994      2713.3581      1.0177122      4455.7805      0.00023081749  23081.749    
    492000   244.34595      244.34572      0.00022291997  298.08337      2506.7628      1.0177122      4455.7805      0.00022291997  22291.997    
    492250   237.17085      237.17062      0.0002305618   289.33028      2433.1524      1.0177122      4455.7805      0.0002305618   23056.18     
    492500   248.52377      248.52355      0.00022462305  303.18         2549.6235      1.0177122      4455.7805      0.00022462305  22462.305    
    492750   247.35354      247.3533       0.00024346783  301.75239      2537.6177      1.0177122      4455.7805      0.00024346783  24346.783    
    493000   251.39604      251.39582      0.00022232322  306.68395      2579.0906      1.0177122      4455.7805      0.00022232322  22232.322    
    493250   237.63961      237.63937      0.00024073883  289.90212      2437.9613      1.0177122      4455.7805      0.00024073883  24073.883    
    493500   241.76864      241.7684       0.00024166674  294.93923      2480.3215      1.0177122      4455.7805      0.00024166674  24166.674    
    493750   264.19506      264.19481      0.00024311599  322.29777      2710.3962      1.0177122      4455.7805      0.00024311599  24311.599    
    494000   249.42744      249.42722      0.00022319601  304.28241      2558.8945      1.0177122      4455.7805      0.00022319601  22319.601    
    494250   241.92579      241.92556      0.00023241441  295.13095      2481.9345      1.0177122      4455.7805      0.00023241441  23241.441    
    494500   258.44239      258.44219      0.0002021375   315.27999      2651.38        1.0177122      4455.7805      0.0002021375   20213.75     
    494750   239.8091       239.80886      0.00023697127  292.54874      2460.2186      1.0177122      4455.7805      0.00023697127  23697.127    
    495000   255.51102      255.51078      0.00023478666  311.7039       2621.3062      1.0177122      4455.7805      0.00023478666  23478.666    
    495250   234.95659      234.95635      0.00024396509  286.62904      2410.4358      1.0177122      4455.7805      0.00024396509  24396.509    
    495500   249.44376      249.44355      0.00021070488  304.30234      2559.0623      1.0177122      4455.7805      0.00021070488  21070.488    
    495750   248.98465      248.98441      0.00023994637  303.74221      2554.3515      1.0177122      4455.7805      0.00023994637  23994.637    
    496000   248.72171      248.72146      0.00025665659  303.42143      2551.6535      1.0177122      4455.7805      0.00025665659  25665.659    
    496250   245.92981      245.92957      0.00024323761  300.01554      2523.0114      1.0177122      4455.7805      0.00024323761  24323.761    
    496500   229.71471      229.71446      0.00025050094  280.23433      2356.659       1.0177122      4455.7805      0.00025050094  25050.094    
    496750   272.70172      272.70148      0.00024068983  332.67526      2797.6673      1.0177122      4455.7805      0.00024068983  24068.983    
    497000   250.3284       250.32816      0.00023777369  305.38149      2568.137       1.0177122      4455.7805      0.00023777369  23777.369    
    497250   261.88925      261.88903      0.00021769706  319.48488      2686.7416      1.0177122      4455.7805      0.00021769706  21769.706    
    497500   234.5672       234.56692      0.00027969424  286.15396      2406.4404      1.0177122      4455.7805      0.00027969424  27969.424    
    497750   238.87913      238.87891      0.00021427272  291.41427      2450.6781      1.0177122      4455.7805      0.00021427272  21427.272    
    498000   262.00037      262.00012      0.0002510954   319.6204       2687.8807      1.0177122      4455.7805      0.0002510954   25109.54     
    498250   231.28035      231.28014      0.00021577449  282.14434      2372.7219      1.0177122      4455.7805      0.00021577449  21577.449    
    498500   247.14862      247.14839      0.00023441007  301.50241      2535.5156      1.0177122      4455.7805      0.00023441007  23441.007    
    498750   251.00999      251.00977      0.00021931516  306.213        2575.1302      1.0177122      4455.7805      0.00021931516  21931.516    
    499000   249.71255      249.71234      0.00020995053  304.63024      2561.8196      1.0177122      4455.7805      0.00020995053  20995.053    
    499250   256.95602      256.95576      0.0002585727   313.46666      2636.1296      1.0177122      4455.7805      0.0002585727   25857.27     
    499500   235.23028      235.23005      0.00022900432  286.96294      2413.2445      1.0177122      4455.7805      0.00022900432  22900.432    
    499750   264.73         264.72975      0.00024777029  322.95035      2715.8846      1.0177122      4455.7805      0.00024777029  24777.029    
    500000   232.28204      232.28181      0.00023182929  283.3663       2382.9976      1.0177122      4455.7805      0.00023182929  23182.929    
Loop time of 33.517 on 4 procs for 500000 steps with 276 atoms

Performance: 1288.899 ns/day, 0.019 hours/ns, 14917.816 timesteps/s
99.4% CPU use with 4 MPI tasks x no OpenMP threads

MPI task timing breakdown:
Section |  min time  |  avg time  |  max time  |%varavg| %total
---------------------------------------------------------------
Pair    | 0.034575   | 0.035662   | 0.036651   |   0.5 |  0.11
Bond    | 2.5224     | 2.6736     | 2.8764     |   7.9 |  7.98
Neigh   | 14.508     | 14.51      | 14.511     |   0.0 | 43.29
Comm    | 13.683     | 13.905     | 14.065     |   3.7 | 41.49
Output  | 0.032771   | 0.044525   | 0.048484   |   3.2 |  0.13
Modify  | 1.8588     | 1.8795     | 1.9        |   1.1 |  5.61
Other   |            | 0.4685     |            |       |  1.40

Nlocal:             69 ave          74 max          64 min
Histogram: 1 0 0 0 1 0 1 0 0 1
Nghost:        3677.75 ave        3700 max        3651 min
Histogram: 1 0 1 0 0 0 0 0 0 2
Neighs:        27081.8 ave       29302 max       25174 min
Histogram: 1 0 0 0 2 0 0 0 0 1

Total # of neighbors = 108327
Ave neighs/atom = 392.48913
Ave special neighs/atom = 6.4347826
Neighbor list builds = 24966
Dangerous builds = 0

unfix 			f1
unfix 			f2

Total wall time: 0:00:46
