
#------------------------------------------------------------------------------#
# simulation settings
#------------------------------------------------------------------------------#

##### simulation variables

variable        seed 	equal  77229
variable        T       equal  300	    #K
variable        p       equal  0.0 	#bar
variable        damp_T  equal  100 		  	#K
variable        damp_P  equal  1000.0	  	#bar
variable        dT      equal  1.0 		 	#fs
variable        kb      equal  0.0019872041

## system setup ##

units           real
atom_style      full
boundary        p p p

pair_style      zero 12.5 nocoeff
bond_style      harmonic
angle_style     hybrid fourier cosine/periodic
dihedral_style  harmonic
improper_style  fourier

pair_modify 	tail yes mix arithmetic
special_bonds 	lj/coul 0.0 0.0 1.0

read_data 	 	../data.emin_pto-4c_In-3c_BTB_DMA_fe
Reading data file ...
  triclinic box = (1.0127974 1.2506642 1.0737052) to (27.573203 27.546212 27.449243) with tilt (-0.4871608 -0.79355401 -0.31961632)
  2 by 1 by 2 MPI processor grid
  reading atoms ...
  456 atoms
  reading velocities ...
  456 velocities
  scanning bonds ...
  8 = max bonds/atom
  scanning angles ...
  28 = max angles/atom
  scanning dihedrals ...
  12 = max dihedrals/atom
  scanning impropers ...
  3 = max impropers/atom
  reading bonds ...
  516 bonds
  reading angles ...
  972 angles
  reading dihedrals ...
  1164 dihedrals
  reading impropers ...
  648 impropers
Finding 1-2 1-3 1-4 neighbors ...
  special bond factors lj:    0        0        1       
  special bond factors coul:  0        0        1       
     8 = max # of 1-2 neighbors
     9 = max # of 1-3 neighbors
    12 = max # of special neighbors
  special bonds CPU = 0.000 seconds
  read_data CPU = 0.003 seconds
include 	 	../bonded_pto-4c_In-3c_BTB.param
### Parameters for Equilibration ###

### Parameters for MOF ###

mass 1 12.010700000
mass 2 1.007940000
mass 3 114.818000000
mass 4 15.999400000


variable b1 equal ${lambda}*462.655054
variable b1 equal 1e-08*462.655054
bond_coeff 1 ${b1} 1.379256
bond_coeff 1 4.62655054e-06 1.379256
variable b2 equal ${lambda}*391.669513
variable b2 equal 1e-08*391.669513
bond_coeff 2 ${b2} 1.458000
bond_coeff 2 3.91669513e-06 1.458000
variable b3 equal ${lambda}*357.440381
variable b3 equal 1e-08*357.440381
bond_coeff 3 ${b3} 1.081418
bond_coeff 3 3.57440381e-06 1.081418
variable b4 equal ${lambda}*187.991596
variable b4 equal 1e-08*187.991596
bond_coeff 4 ${b4} 2.033568
bond_coeff 4 1.87991596e-06 2.033568
variable b5 equal ${lambda}*646.680887
variable b5 equal 1e-08*646.680887
bond_coeff 5 ${b5} 1.311940
bond_coeff 5 6.46680887e-06 1.311940

variable a1 equal ${lambda}*111.297508
variable a1 equal 1e-08*111.297508
angle_coeff 1 cosine/periodic ${a1} -1 3
angle_coeff 1 cosine/periodic 1.11297508e-06 -1 3
variable a2 equal ${lambda}*102.183280
variable a2 equal 1e-08*102.183280
angle_coeff 2 cosine/periodic ${a2} -1 3
angle_coeff 2 cosine/periodic 1.0218328e-06 -1 3
variable a3 equal ${lambda}*57.289016
variable a3 equal 1e-08*57.289016
angle_coeff 3 cosine/periodic ${a3} -1 3
angle_coeff 3 cosine/periodic 5.7289016e-07 -1 3
variable a4 equal ${lambda}*127.915933
variable a4 equal 1e-08*127.915933
angle_coeff 4 fourier ${a4} 0.343737 0.374972 0.281246
angle_coeff 4 fourier 1.27915933e-06 0.343737 0.374972 0.281246
variable a5 equal ${lambda}*77.909182
variable a5 equal 1e-08*77.909182
angle_coeff 5 cosine/periodic ${a5} -1 3
angle_coeff 5 cosine/periodic 7.7909182e-07 -1 3
variable a6 equal ${lambda}*131.755710
variable a6 equal 1e-08*131.755710
angle_coeff 6 cosine/periodic ${a6} -1 3
angle_coeff 6 cosine/periodic 1.3175571e-06 -1 3
variable a7 equal ${lambda}*187.136328
variable a7 equal 1e-08*187.136328
angle_coeff 7 cosine/periodic ${a7} -1 3
angle_coeff 7 cosine/periodic 1.87136328e-06 -1 3

variable d1 equal ${lambda}*3.368555
variable d1 equal 1e-08*3.368555
dihedral_coeff 1 ${d1} -1 2
dihedral_coeff 1 3.368555e-08 -1 2
variable d2 equal ${lambda}*1.250000
variable d2 equal 1e-08*1.250000
dihedral_coeff 2 ${d2} -1 2
dihedral_coeff 2 1.25e-08 -1 2
variable d3 equal ${lambda}*6.737110
variable d3 equal 1e-08*6.737110
dihedral_coeff 3 ${d3} -1 2
dihedral_coeff 3 6.73711e-08 -1 2

variable i1 equal ${lambda}*2.000000
variable i1 equal 1e-08*2.000000
improper_coeff 1 ${i1} 1.000000 -1.000000 0.000000 0
improper_coeff 1 2e-08 1.000000 -1.000000 0.000000 0

### Parameters for Molecule ###

mass 5 12.010700000
mass 6 1.007940000
mass 7 14.006700000


bond_coeff 6 331.069389 1.109401
bond_coeff 7 528.634538 1.451071
bond_coeff 8 527.945261 1.044419

angle_coeff 8 fourier 75.498766 0.343737 0.374972 0.281246
angle_coeff 9 fourier 169.780468 0.343737 0.374972 0.281246
angle_coeff 10 fourier 260.869388 0.317506 0.313225 0.272502
angle_coeff 11 fourier 144.695053 0.317506 0.313225 0.272502
angle_coeff 12 fourier 97.017167 0.317506 0.313225 0.272502

dihedral_coeff 4 0.054250 1 3


pair_coeff * *

group			fram type < 5
390 atoms in group fram

fix				SPRING fram spring/self 10 	# harmonic restraint to framework

group			cation type > 4
66 atoms in group cation
group			center type 7
6 atoms in group center
fix			SPRING2 center spring/self 1



#------------------------------------------------------------------------------#
# equilibration
#------------------------------------------------------------------------------#

reset_timestep	0

thermo_style	custom step etotal ke pe temp press density vol ebond eangle edihed eimp emol
thermo 			5000

velocity 		all create ${T} ${seed}
velocity 		all create 300 ${seed}
velocity 		all create 300 77229

fix				f1 all nve
fix 			f2 all langevin ${T} ${T} ${damp_T} ${seed} zero yes
fix 			f2 all langevin 300 ${T} ${damp_T} ${seed} zero yes
fix 			f2 all langevin 300 300 ${damp_T} ${seed} zero yes
fix 			f2 all langevin 300 300 100 ${seed} zero yes
fix 			f2 all langevin 300 300 100 77229 zero yes
compute 		c1 all temp/com
fix_modify		f2 temp c1

run				200000
Generated 0 of 21 mixed pair_coeff terms from arithmetic mixing rule
Neighbor list info ...
  update every 1 steps, delay 10 steps, check yes
  max neighbors/atom: 2000, page size: 100000
  master list distance cutoff = 14.5
  ghost atom cutoff = 14.5
  binsize = 7.25, bins = 4 4 4
  1 neighbor lists, perpetual/occasional/extra = 1 0 0
  (1) pair zero, perpetual
      attributes: half, newton on
      pair build: half/bin/newton/tri
      stencil: half/bin/3d/tri
      bin: standard
WARNING: Inconsistent image flags (../domain.cpp:819)
Per MPI rank memory allocation (min/avg/max) = 20.35 | 20.35 | 20.35 Mbytes
   Step         TotEng         KinEng         PotEng          Temp          Press         Density         Volume         E_bond        E_angle        E_dihed        E_impro         E_mol     
         0   422.00245      406.88057      15.121875      300            263.74001      0.40101743     18421.214      3.1675723      11.930275      0.024028264    1.6186922e-08  15.121875    
      5000   462.47154      407.73331      54.73823       300.62874      1024.6672      0.40101743     18421.214      19.103478      32.606991      3.0277582      2.3990665e-06  54.73823     
     10000   454.84595      393.52567      61.320278      290.1532       871.59604      0.40101743     18421.214      23.508243      33.659678      4.1523538      2.7341935e-06  61.320278    
     15000   429.57642      369.22765      60.348766      272.23786      1222.4269      0.40101743     18421.214      24.066702      32.907533      3.3745285      2.405334e-06   60.348766    
     20000   473.88814      412.73538      61.152756      304.31685      948.03942      0.40101743     18421.214      23.621949      34.368403      3.1624016      2.0991048e-06  61.152756    
     25000   464.61972      410.18725      54.432469      302.43807      721.24111      0.40101743     18421.214      17.469351      33.416525      3.5465914      2.5358832e-06  54.432469    
     30000   478.66463      430.75136      47.913272      317.60034      996.58303      0.40101743     18421.214      15.511014      27.060142      5.3421134      2.5213506e-06  47.913272    
     35000   500.99922      440.76621      60.233013      324.98446      762.42495      0.40101743     18421.214      19.793248      35.12977       5.3099921      2.7284549e-06  60.233013    
     40000   458.80341      399.55884      59.244563      294.60157      869.47108      0.40101743     18421.214      16.369191      39.392447      3.4829218      2.4961562e-06  59.244563    
     45000   479.04453      426.16386      52.880673      314.2179       1033.8229      0.40101743     18421.214      14.853612      32.783461      5.2435976      2.3893428e-06  52.880673    
     50000   487.33408      424.13257      63.201514      312.72019      556.91035      0.40101743     18421.214      17.591264      40.752413      4.8578342      2.2095329e-06  63.201514    
     55000   468.66716      418.78693      49.880238      308.77876      811.26333      0.40101743     18421.214      15.12359       30.565627      4.1910172      2.7953763e-06  49.880238    
     60000   454.09794      399.41607      54.681875      294.4963       885.0948       0.40101743     18421.214      19.259039      31.558123      3.8647107      2.7588299e-06  54.681875    
     65000   455.76727      396.68051      59.086756      292.47932      1042.6412      0.40101743     18421.214      20.992852      34.458707      3.6351942      2.860439e-06   59.086756    
     70000   477.00927      417.90427      59.104999      308.12796      1205.1726      0.40101743     18421.214      21.72821       35.122058      2.2547284      2.6749122e-06  59.104999    
     75000   526.50814      463.30529      63.202843      341.60291      1433.1024      0.40101743     18421.214      18.75388       40.772466      3.676495       2.4223585e-06  63.202843    
     80000   479.8153       414.35599      65.459309      305.51175      1147.361       0.40101743     18421.214      21.038885      41.305071      3.1153502      2.3758293e-06  65.459309    
     85000   468.13906      413.17434      54.964716      304.64051      817.43356      0.40101743     18421.214      20.755886      30.304765      3.9040638      2.4480931e-06  54.964716    
     90000   458.25231      393.59127      64.661034      290.20157      1007.3332      0.40101743     18421.214      18.856378      40.704714      5.0999387      2.6413487e-06  64.661034    
     95000   481.93928      421.49677      60.442511      310.77678      1143.195       0.40101743     18421.214      29.244661      27.446116      3.7517319      2.7077269e-06  60.442511    
    100000   470.22361      409.05676      61.166853      301.60454      947.29227      0.40101743     18421.214      21.909143      36.649032      2.6086758      2.5501414e-06  61.166853    
    105000   457.68811      392.31774      65.370369      289.26258      1181.1483      0.40101743     18421.214      26.827473      32.312806      6.2300872      2.7684009e-06  65.370369    
    110000   474.06141      413.2904       60.771003      304.72608      1145.9554      0.40101743     18421.214      20.763943      37.101361      2.9056952      3.2958152e-06  60.771003    
    115000   438.84554      380.23765      58.607895      280.35572      946.98816      0.40101743     18421.214      22.462519      33.229789      2.9155849      2.4135204e-06  58.607895    
    120000   444.42377      394.36686      50.05691       290.77342      1018.693       0.40101743     18421.214      18.857568      26.844699      4.3546398      2.9656382e-06  50.05691     
    125000   457.55101      397.64365      59.907365      293.18946      1079.3628      0.40101743     18421.214      22.058574      33.212411      4.6363786      2.1762478e-06  59.907365    
    130000   484.57173      422.87353      61.698199      311.79188      1342.3397      0.40101743     18421.214      24.205731      32.387435      5.1050307      2.5539795e-06  61.698199    
    135000   469.88775      400.15184      69.735916      295.03879      575.46852      0.40101743     18421.214      27.594933      39.521232      2.6197481      2.5002621e-06  69.735916    
    140000   439.5876       379.18282      60.404777      279.57797      797.84734      0.40101743     18421.214      13.495354      43.926204      2.9832164      2.6474768e-06  60.404777    
    145000   453.77624      397.22509      56.551152      292.88085      837.04315      0.40101743     18421.214      18.37831       33.406113      4.7667264      2.407838e-06   56.551152    
    150000   449.69482      395.36758      54.327241      291.51128      1080.1023      0.40101743     18421.214      16.808134      33.457983      4.061122       2.5635461e-06  54.327241    
    155000   467.93584      412.1792       55.756639      303.90677      440.33234      0.40101743     18421.214      22.889275      28.42564       4.4417226      2.4020265e-06  55.756639    
    160000   459.60127      410.10427      49.496994      302.37689      711.59199      0.40101743     18421.214      17.803397      29.042886      2.6507089      2.4977933e-06  49.496994    
    165000   467.56063      410.27187      57.288764      302.50046      636.10496      0.40101743     18421.214      16.835767      36.076038      4.3769566      2.8791823e-06  57.288764    
    170000   464.47103      406.37864      58.092389      299.62991      664.61624      0.40101743     18421.214      18.939503      36.056668      3.0962155      2.5310007e-06  58.092389    
    175000   455.61508      407.57298      48.0421        300.51052      626.69746      0.40101743     18421.214      17.933198      27.354411      2.7544882      3.0126989e-06  48.0421      
    180000   462.38883      401.2697       61.11913       295.863        1055.4961      0.40101743     18421.214      22.203792      34.116219      4.7991166      2.5934339e-06  61.11913     
    185000   474.98075      417.15496      57.825791      307.57548      713.93874      0.40101743     18421.214      21.875664      31.457264      4.4928603      2.8165367e-06  57.825791    
    190000   465.64122      414.70401      50.937213      305.76835      1521.4736      0.40101743     18421.214      14.175962      33.585201      3.1760474      2.5997343e-06  50.937213    
    195000   474.95362      420.99613      53.957488      310.40764      1405.464       0.40101743     18421.214      17.766456      30.965676      5.2253533      2.6471017e-06  53.957488    
    200000   480.56084      426.70196      53.858879      314.61465      738.74202      0.40101743     18421.214      16.21271       33.579094      4.0670718      2.7272495e-06  53.858879    
Loop time of 9.73996 on 4 procs for 200000 steps with 456 atoms

Performance: 1774.134 ns/day, 0.014 hours/ns, 20533.964 timesteps/s
99.6% CPU use with 4 MPI tasks x no OpenMP threads

MPI task timing breakdown:
Section |  min time  |  avg time  |  max time  |%varavg| %total
---------------------------------------------------------------
Pair    | 0.0081149  | 0.0081857  | 0.0082881  |   0.1 |  0.08
Bond    | 1.8209     | 1.8536     | 1.8868     |   2.1 | 19.03
Neigh   | 3.5064     | 3.5073     | 3.5079     |   0.0 | 36.01
Comm    | 3.2525     | 3.2899     | 3.3192     |   1.6 | 33.78
Output  | 0.0003975  | 0.00041398 | 0.00046267 |   0.0 |  0.00
Modify  | 0.9181     | 0.92226    | 0.92595    |   0.3 |  9.47
Other   |            | 0.1583     |            |       |  1.62

Nlocal:            114 ave         130 max         100 min
Histogram: 1 0 1 0 0 0 1 0 0 1
Nghost:         2255.5 ave        2337 max        2171 min
Histogram: 1 0 1 0 0 0 0 1 0 1
Neighs:          17703 ave       20579 max       13528 min
Histogram: 1 0 0 0 0 0 1 1 0 1

Total # of neighbors = 70812
Ave neighs/atom = 155.28947
Ave special neighs/atom = 6.3157895
Neighbor list builds = 9929
Dangerous builds = 0

#------------------------------------------------------------------------------#
# sampling
#------------------------------------------------------------------------------#

reset_timestep	0

compute 		MOF_pe_a fram pe/atom bond angle dihedral improper	# per atom quantity
compute			MOF_pe all reduce sum c_MOF_pe_a	# reduce to bulk quantity

variable 		dudlam	equal c_MOF_pe/${lambda}
variable 		dudlam	equal c_MOF_pe/1e-08

fix				BOND all ave/time 250 1 250 v_dudlam file bond_${lambda}.lmp
fix				BOND all ave/time 250 1 250 v_dudlam file bond_1e-08.lmp

thermo_style	custom step etotal ke pe temp press density vol c_MOF_pe v_dudlam
thermo 			250

run 			500000
Generated 0 of 21 mixed pair_coeff terms from arithmetic mixing rule
WARNING: Inconsistent image flags (../domain.cpp:819)
Per MPI rank memory allocation (min/avg/max) = 21.35 | 21.35 | 21.35 Mbytes
   Step         TotEng         KinEng         PotEng          Temp          Press         Density         Volume        c_MOF_pe       v_dudlam   
         0   480.56084      426.70196      53.858879      314.61465      738.74202      0.40101743     18421.214      0.00035369689  35369.689    
       250   442.15591      387.27685      54.879064      285.54584      840.34502      0.40101743     18421.214      0.00040066114  40066.114    
       500   454.71858      405.10137      49.617208      298.68816      1029.4449      0.40101743     18421.214      0.00035512255  35512.255    
       750   471.68792      406.5531       65.13482       299.75855      828.64792      0.40101743     18421.214      0.00036043879  36043.879    
      1000   464.03393      407.15648      56.877451      300.20343      1010.2346      0.40101743     18421.214      0.00038345325  38345.325    
      1250   468.10853      411.68624      56.422295      303.5433       801.99508      0.40101743     18421.214      0.00032993262  32993.262    
      1500   469.83338      407.67551      62.157872      300.58612      1088.8997      0.40101743     18421.214      0.00034177457  34177.457    
      1750   470.48829      415.33778      55.150514      306.23564      1353.5834      0.40101743     18421.214      0.00038607653  38607.653    
      2000   453.22704      394.04917      59.177869      290.53919      731.22931      0.40101743     18421.214      0.00035125189  35125.189    
      2250   483.42767      426.99006      56.437616      314.82707      465.89961      0.40101743     18421.214      0.00037643889  37643.889    
      2500   472.04268      414.8825       57.160187      305.89996      822.38685      0.40101743     18421.214      0.00037616692  37616.692    
      2750   458.6532       403.57897      55.074227      297.56568      1526.1993      0.40101743     18421.214      0.00034283377  34283.377    
      3000   502.54547      440.79195      61.753524      325.00344      453.43141      0.40101743     18421.214      0.00036960594  36960.594    
      3250   461.1037       407.15127      53.952427      300.19959      589.11205      0.40101743     18421.214      0.00037425965  37425.965    
      3500   466.60814      418.34737      48.260763      308.45467      673.77706      0.40101743     18421.214      0.00036109857  36109.857    
      3750   453.07945      403.03553      50.043921      297.16498      1401.876       0.40101743     18421.214      0.00035659342  35659.342    
      4000   464.22568      406.26613      57.959553      299.54696      934.37197      0.40101743     18421.214      0.00035675897  35675.897    
      4250   491.90131      429.82465      62.076658      316.91706      818.90912      0.40101743     18421.214      0.00036922194  36922.194    
      4500   517.17055      446.8489       70.321652      329.46933      703.68264      0.40101743     18421.214      0.00036896755  36896.755    
      4750   459.16248      400.50311      58.659369      295.29779      1609.4728      0.40101743     18421.214      0.00036854125  36854.125    
      5000   468.63937      405.82176      62.817618      299.21932      946.85986      0.40101743     18421.214      0.00036019453  36019.453    
      5250   469.88596      400.28964      69.596314      295.14039      1005.4279      0.40101743     18421.214      0.00037113306  37113.306    
      5500   472.85769      408.92322      63.934463      301.50608      793.95943      0.40101743     18421.214      0.00037559376  37559.376    
      5750   485.88837      426.73475      59.153619      314.63883      1014.8838      0.40101743     18421.214      0.00038675047  38675.047    
      6000   476.04572      411.43245      64.613265      303.35618      848.54136      0.40101743     18421.214      0.00037465009  37465.009    
      6250   425.26253      372.99164      52.270888      275.01311      1211.7982      0.40101743     18421.214      0.00035233949  35233.949    
      6500   434.40197      388.54592      45.856051      286.48155      860.83566      0.40101743     18421.214      0.00040043717  40043.717    
      6750   442.92326      384.40876      58.514501      283.43115      676.20248      0.40101743     18421.214      0.00036757524  36757.524    
      7000   458.49648      395.5971       62.899382      291.6805       802.39025      0.40101743     18421.214      0.00036505011  36505.011    
      7250   489.54413      419.83904      69.705093      309.5545       807.27309      0.40101743     18421.214      0.00036945543  36945.543    
      7500   498.79362      438.95085      59.842765      323.64597      937.96105      0.40101743     18421.214      0.00038478185  38478.185    
      7750   463.66952      409.67702      53.992501      302.06187      369.46607      0.40101743     18421.214      0.00035619     35619        
      8000   481.40698      428.65419      52.752789      316.05406      747.40223      0.40101743     18421.214      0.00037201007  37201.007    
      8250   462.00805      403.74082      58.267224      297.68501      485.45813      0.40101743     18421.214      0.00036679436  36679.436    
      8500   484.98485      433.66257      51.322283      319.74682      941.72563      0.40101743     18421.214      0.00033045789  33045.789    
      8750   491.31314      431.74158      59.571559      318.33044      934.90056      0.40101743     18421.214      0.00036005269  36005.269    
      9000   481.17297      414.01908      67.153886      305.26335      884.8876       0.40101743     18421.214      0.00031642433  31642.433    
      9250   460.51273      407.17075      53.341978      300.21395      723.89969      0.40101743     18421.214      0.0003766529   37665.29     
      9500   479.36593      414.62489      64.741049      305.71001      1252.5003      0.40101743     18421.214      0.00034985654  34985.654    
      9750   492.40048      431.98118      60.419304      318.50711      977.4532       0.40101743     18421.214      0.00038214576  38214.576    
     10000   493.05797      434.42656      58.631406      320.31013      591.45295      0.40101743     18421.214      0.00036776952  36776.952    
     10250   452.41554      398.83265      53.582888      294.06613      849.5312       0.40101743     18421.214      0.00035633914  35633.914    
     10500   431.92869      374.10033      57.828361      275.83056      836.30812      0.40101743     18421.214      0.0003363217   33632.17     
     10750   471.63798      408.60069      63.03729       301.26827      981.02618      0.40101743     18421.214      0.00036522075  36522.075    
     11000   501.96867      435.84937      66.119309      321.35919      731.3665       0.40101743     18421.214      0.00035601671  35601.671    
     11250   470.71884      405.52768      65.191157      299.00249      1257.7725      0.40101743     18421.214      0.00035491238  35491.238    
     11500   456.75225      398.74967      58.002576      294.00495      792.68982      0.40101743     18421.214      0.0003393515   33935.15     
     11750   486.1887       429.42439      56.764308      316.62194      1225.223       0.40101743     18421.214      0.00037708214  37708.214    
     12000   483.31548      429.55589      53.759592      316.7189       631.50257      0.40101743     18421.214      0.00037710726  37710.726    
     12250   465.08479      416.88296      48.201836      307.37493      1001.4728      0.40101743     18421.214      0.00033553034  33553.034    
     12500   495.2295       433.55152      61.677979      319.66495      691.99907      0.40101743     18421.214      0.00034479922  34479.922    
     12750   484.9636       425.76344      59.200157      313.92266      836.51707      0.40101743     18421.214      0.00036974828  36974.828    
     13000   452.68241      403.62459      49.057818      297.59931      993.48774      0.40101743     18421.214      0.00037353727  37353.727    
     13250   471.58791      420.76341      50.824498      310.23605      777.19578      0.40101743     18421.214      0.00036825117  36825.117    
     13500   449.35403      402.03661      47.31742       296.42846      714.24095      0.40101743     18421.214      0.00035074672  35074.672    
     13750   452.00549      401.23813      50.76736       295.83973      412.00837      0.40101743     18421.214      0.00035407717  35407.717    
     14000   455.45442      400.8469       54.607525      295.55127      929.66861      0.40101743     18421.214      0.00035054345  35054.345    
     14250   459.17277      406.48277      52.689993      299.7067       1372.4235      0.40101743     18421.214      0.00037012664  37012.664    
     14500   483.93808      428.51138      55.426709      315.94876      832.12872      0.40101743     18421.214      0.00036422284  36422.284    
     14750   473.0323       413.94521      59.087094      305.20888      544.57243      0.40101743     18421.214      0.00035000374  35000.374    
     15000   475.45586      409.95007      65.505789      302.26319      759.67102      0.40101743     18421.214      0.0003597645   35976.45     
     15250   460.7605       401.32927      59.431238      295.90693      789.27102      0.40101743     18421.214      0.00037813841  37813.841    
     15500   458.67688      402.85864      55.818235      297.03456      938.59206      0.40101743     18421.214      0.00034771304  34771.304    
     15750   466.48461      407.82377      58.660837      300.69544      690.81506      0.40101743     18421.214      0.00033910157  33910.157    
     16000   462.47808      415.25061      47.22747       306.17138      569.10105      0.40101743     18421.214      0.00035440345  35440.345    
     16250   463.06526      404.3436       58.721664      298.12945      1286.8524      0.40101743     18421.214      0.00036328168  36328.168    
     16500   451.71566      392.83959      58.876066      289.64735      675.54232      0.40101743     18421.214      0.00037704766  37704.766    
     16750   471.54973      416.73905      54.810674      307.26883      486.49317      0.40101743     18421.214      0.00035675311  35675.311    
     17000   471.33697      420.28279      51.054183      309.88168      903.8833       0.40101743     18421.214      0.00036432587  36432.587    
     17250   428.76864      375.59798      53.170663      276.93481      939.74241      0.40101743     18421.214      0.00038655704  38655.704    
     17500   490.821        426.84328      63.977718      314.71884      974.27071      0.40101743     18421.214      0.00037084477  37084.477    
     17750   449.39364      400.93839      48.455246      295.61873      1048.1121      0.40101743     18421.214      0.00036319398  36319.398    
     18000   459.12808      401.49755      57.630531      296.031        259.69175      0.40101743     18421.214      0.00036980532  36980.532    
     18250   453.57479      388.27376      65.301026      286.28088      1053.0591      0.40101743     18421.214      0.00037329469  37329.469    
     18500   489.14526      430.31848      58.826779      317.28117      707.01027      0.40101743     18421.214      0.00038102472  38102.472    
     18750   467.76532      405.98639      61.778933      299.3407       762.07667      0.40101743     18421.214      0.00037034595  37034.595    
     19000   428.43714      376.06678      52.370357      277.28046      710.02517      0.40101743     18421.214      0.00036544454  36544.454    
     19250   468.22948      411.07129      57.158191      303.08989      1122.0528      0.40101743     18421.214      0.00035189679  35189.679    
     19500   453.52359      396.94361      56.579982      292.67331      533.55616      0.40101743     18421.214      0.00036346442  36346.442    
     19750   481.33777      420.09072      61.247042      309.74007      1146.2565      0.40101743     18421.214      0.00036882038  36882.038    
     20000   499.89766      443.47054      56.427129      326.97841      1020.5731      0.40101743     18421.214      0.00034220982  34220.982    
     20250   472.77791      423.68998      49.087928      312.39386      913.21395      0.40101743     18421.214      0.00034521964  34521.964    
     20500   472.12843      422.02519      50.103248      311.16638      936.85545      0.40101743     18421.214      0.00037436626  37436.626    
     20750   504.92935      439.31398      65.615369      323.91371      677.60901      0.40101743     18421.214      0.00036992601  36992.601    
     21000   455.87115      399.99475      55.876395      294.92297      376.01895      0.40101743     18421.214      0.00034550072  34550.072    
     21250   479.52646      415.40122      64.125237      306.28242      1053.7911      0.40101743     18421.214      0.0003542199   35421.99     
     21500   471.97259      401.67157      70.301015      296.15932      481.40468      0.40101743     18421.214      0.00034231604  34231.604    
     21750   445.90821      394.37608      51.532127      290.78023      436.68016      0.40101743     18421.214      0.00037331022  37331.022    
     22000   470.89062      417.90125      52.989367      308.12574      924.11556      0.40101743     18421.214      0.00036353986  36353.986    
     22250   464.81348      405.28569      59.527789      298.82407      645.43956      0.40101743     18421.214      0.00036454904  36454.904    
     22500   516.89836      456.093        60.805358      336.28517      836.2911       0.40101743     18421.214      0.00033312009  33312.009    
     22750   464.62269      408.45482      56.16787       301.16072      913.00579      0.40101743     18421.214      0.00038194396  38194.396    
     23000   480.10268      420.54232      59.560356      310.07304      882.80746      0.40101743     18421.214      0.00036026664  36026.664    
     23250   478.04645      423.87755      54.168895      312.53216      543.06167      0.40101743     18421.214      0.00036322872  36322.872    
     23500   443.7277       397.23134      46.496359      292.88546      577.7345       0.40101743     18421.214      0.00039642338  39642.338    
     23750   452.58678      400.12367      52.463112      295.01802      1156.0841      0.40101743     18421.214      0.0003301546   33015.46     
     24000   476.69493      418.08376      58.611172      308.2603       1047.5362      0.40101743     18421.214      0.00036853206  36853.206    
     24250   469.19105      404.24278      64.948273      298.05511      660.92714      0.40101743     18421.214      0.00035093536  35093.536    
     24500   437.76962      386.14928      51.620344      284.71446      609.91239      0.40101743     18421.214      0.00034574548  34574.548    
     24750   472.59931      421.65699      50.942318      310.8949       670.72885      0.40101743     18421.214      0.00036534016  36534.016    
     25000   457.04998      396.48285      60.567128      292.33358      380.38919      0.40101743     18421.214      0.0003480761   34807.61     
     25250   470.39856      405.64594      64.75262       299.08968      657.89925      0.40101743     18421.214      0.00041011882  41011.882    
     25500   461.26896      401.27443      59.994524      295.8665       648.995        0.40101743     18421.214      0.0003839796   38397.96     
     25750   435.20753      373.67153      61.535995      275.51441      569.83235      0.40101743     18421.214      0.00039033806  39033.806    
     26000   446.69791      393.37893      53.318984      290.04501      1335.7676      0.40101743     18421.214      0.00038030772  38030.772    
     26250   478.15544      418.64126      59.514184      308.67135      495.07229      0.40101743     18421.214      0.0003245365   32453.65     
     26500   445.27995      387.00624      58.27371       285.34631      901.21378      0.40101743     18421.214      0.00036488712  36488.712    
     26750   463.1221       403.68832      59.433778      297.6463       924.77524      0.40101743     18421.214      0.00034635015  34635.015    
     27000   471.93819      416.8509       55.087294      307.35129      1386.0245      0.40101743     18421.214      0.00036243742  36243.742    
     27250   472.91005      421.62133      51.288726      310.86861      1017.1436      0.40101743     18421.214      0.00038200665  38200.665    
     27500   472.5734       418.00412      54.569272      308.20159      620.9674       0.40101743     18421.214      0.00036740167  36740.167    
     27750   480.12262      426.09736      54.025262      314.16887      947.66954      0.40101743     18421.214      0.00039073627  39073.627    
     28000   478.46882      419.29949      59.169332      309.15668      345.0049       0.40101743     18421.214      0.00033145231  33145.231    
     28250   510.73212      450.73534      59.996782      332.33487      1048.8468      0.40101743     18421.214      0.00038711346  38711.346    
     28500   452.63105      390.85552      61.775526      288.18446      598.57642      0.40101743     18421.214      0.00036582972  36582.972    
     28750   461.00325      401.66407      59.339182      296.15378      577.85758      0.40101743     18421.214      0.00037664248  37664.248    
     29000   506.91674      444.29022      62.62652       327.58277      1070.6675      0.40101743     18421.214      0.00035733552  35733.552    
     29250   468.64136      409.13519      59.506178      301.66237      800.80943      0.40101743     18421.214      0.00034991877  34991.877    
     29500   466.96902      403.2444       63.724616      297.31899      773.50219      0.40101743     18421.214      0.0003591986   35919.86     
     29750   434.19022      375.00215      59.188075      276.49549      439.16407      0.40101743     18421.214      0.00036411804  36411.804    
     30000   491.5309       428.73409      62.796809      316.11297      827.82682      0.40101743     18421.214      0.00034954298  34954.298    
     30250   487.75757      435.68398      52.073589      321.23725      1156.4084      0.40101743     18421.214      0.00034273775  34273.775    
     30500   463.17905      408.02412      55.154927      300.84316      1337.6013      0.40101743     18421.214      0.0003497207   34972.07     
     30750   448.37847      398.30814      50.07033       293.6794       904.93662      0.40101743     18421.214      0.00035215006  35215.006    
     31000   476.91319      415.21089      61.702297      306.14208      1233.5271      0.40101743     18421.214      0.00036220154  36220.154    
     31250   484.55525      431.28392      53.271332      317.99301      853.37244      0.40101743     18421.214      0.00032500665  32500.665    
     31500   465.35604      404.17439      61.181653      298.00469      1165.1925      0.40101743     18421.214      0.00035676215  35676.215    
     31750   458.82681      395.92728      62.89953       291.92395      623.73815      0.40101743     18421.214      0.00032096389  32096.389    
     32000   456.61093      390.28094      66.329986      287.76081      459.71954      0.40101743     18421.214      0.00034750853  34750.853    
     32250   443.86333      384.59703      59.266295      283.56996      995.50869      0.40101743     18421.214      0.0003414424   34144.24     
     32500   456.04183      397.27147      58.770359      292.91505      178.28937      0.40101743     18421.214      0.00034913382  34913.382    
     32750   459.28238      401.05689      58.225493      295.7061       532.97837      0.40101743     18421.214      0.00032852859  32852.859    
     33000   444.36483      390.47415      53.890684      287.90326      835.68553      0.40101743     18421.214      0.00038113799  38113.799    
     33250   454.93914      405.02705      49.912089      298.63337      438.53495      0.40101743     18421.214      0.00036434548  36434.548    
     33500   469.64039      419.75282      49.887572      309.49093      896.87598      0.40101743     18421.214      0.00037157726  37157.726    
     33750   469.49716      403.65011      65.847058      297.61812      873.19756      0.40101743     18421.214      0.00036814895  36814.895    
     34000   509.46335      438.40403      71.059319      323.24278      558.15489      0.40101743     18421.214      0.0003586954   35869.54     
     34250   450.88155      398.87187      52.009678      294.09505      893.90773      0.40101743     18421.214      0.00035231734  35231.734    
     34500   470.38651      415.70925      54.677263      306.50953      1235.9207      0.40101743     18421.214      0.00035916333  35916.333    
     34750   454.79179      404.95076      49.841025      298.57712      957.50345      0.40101743     18421.214      0.00035956705  35956.705    
     35000   492.04657      429.94002      62.106548      317.00213      302.73018      0.40101743     18421.214      0.00037771448  37771.448    
     35250   470.55231      416.56743      53.984881      307.14229      614.7225       0.40101743     18421.214      0.00037393282  37393.282    
     35500   480.28653      428.42367      51.862857      315.8841       830.8261       0.40101743     18421.214      0.00035338993  35338.993    
     35750   486.95077      430.33151      56.619258      317.29078      531.77631      0.40101743     18421.214      0.00038817311  38817.311    
     36000   467.56235      402.35318      65.209172      296.66187      114.23298      0.40101743     18421.214      0.00037473631  37473.631    
     36250   428.04647      376.42088      51.625588      277.54155      1065.9211      0.40101743     18421.214      0.00037146562  37146.562    
     36500   455.9642       401.52204      54.442151      296.04907      1032.7501      0.40101743     18421.214      0.00039042872  39042.872    
     36750   448.18487      390.01398      58.170891      287.56398      852.06534      0.40101743     18421.214      0.00038399481  38399.481    
     37000   470.15242      411.61152      58.540901      303.48821      808.55313      0.40101743     18421.214      0.00039067696  39067.696    
     37250   487.20099      430.46835      56.732643      317.39167      737.97215      0.40101743     18421.214      0.00037748049  37748.049    
     37500   479.44407      427.47462      51.969456      315.18434      714.59017      0.40101743     18421.214      0.0003893066   38930.66     
     37750   487.67446      430.78227      56.892189      317.62313      1191.568       0.40101743     18421.214      0.00035485379  35485.379    
     38000   467.25833      408.32684      58.931497      301.06636      836.85592      0.40101743     18421.214      0.00037824757  37824.757    
     38250   456.3812       407.09248      49.288721      300.15624      958.79915      0.40101743     18421.214      0.00035274609  35274.609    
     38500   471.75034      407.07716      64.673179      300.14495      1205.4729      0.40101743     18421.214      0.00037768944  37768.944    
     38750   459.47019      407.95338      51.516806      300.791        357.15889      0.40101743     18421.214      0.00036932855  36932.855    
     39000   453.40906      404.98206      48.427         298.6002       1077.79        0.40101743     18421.214      0.00035614568  35614.568    
     39250   466.08712      419.11988      46.967239      309.02425      863.62606      0.40101743     18421.214      0.00038738714  38738.714    
     39500   475.29634      411.13304      64.163298      303.13542      764.03358      0.40101743     18421.214      0.00037224827  37224.827    
     39750   472.94127      412.73584      60.205427      304.31719      1207.3697      0.40101743     18421.214      0.00035734443  35734.443    
     40000   457.59083      397.51651      60.074322      293.09572      1131.2836      0.40101743     18421.214      0.00038227584  38227.584    
     40250   460.007        408.14722      51.859778      300.93392      1204.1052      0.40101743     18421.214      0.00037860409  37860.409    
     40500   495.07154      433.13634      61.935201      319.35883      1292.748       0.40101743     18421.214      0.00035986181  35986.181    
     40750   469.42296      409.37559      60.047372      301.83962      738.16488      0.40101743     18421.214      0.00040278971  40278.971    
     41000   459.12777      407.2796       51.848174      300.29421      679.12226      0.40101743     18421.214      0.00035297241  35297.241    
     41250   472.25859      416.47197      55.786613      307.0719       689.31708      0.40101743     18421.214      0.00035852305  35852.305    
     41500   452.24276      391.54203      60.700728      288.69063      805.03856      0.40101743     18421.214      0.00036646031  36646.031    
     41750   433.37419      380.50465      52.869542      280.55258      1096.4571      0.40101743     18421.214      0.00033881756  33881.756    
     42000   462.23731      401.79665      60.440659      296.25154      1084.7611      0.40101743     18421.214      0.00035801569  35801.569    
     42250   456.25287      401.09135      55.161527      295.73151      1119.2593      0.40101743     18421.214      0.00037359639  37359.639    
     42500   482.02784      422.20794      59.819903      311.30113      781.92945      0.40101743     18421.214      0.00035705759  35705.759    
     42750   494.85988      428.58423      66.275651      316.00248      1325.8957      0.40101743     18421.214      0.0003819911   38199.11     
     43000   483.76381      419.39044      64.373365      309.22374      1038.1451      0.40101743     18421.214      0.00040245211  40245.211    
     43250   451.89117      386.89287      64.998304      285.26272      739.4423       0.40101743     18421.214      0.00037693737  37693.737    
     43500   466.67767      415.87284      50.804834      306.63015      703.25594      0.40101743     18421.214      0.00036348944  36348.944    
     43750   433.4452       383.16167      50.283524      282.51165      1103.2938      0.40101743     18421.214      0.00040222283  40222.283    
     44000   445.31513      393.8766       51.438531      290.41195      973.34697      0.40101743     18421.214      0.00038444228  38444.228    
     44250   470.25295      415.07312      55.179823      306.04051      627.95656      0.40101743     18421.214      0.00037511815  37511.815    
     44500   471.35066      414.57983      56.770834      305.67679      1204.2236      0.40101743     18421.214      0.00036624289  36624.289    
     44750   479.30175      405.95983      73.341914      299.32112      1014.3235      0.40101743     18421.214      0.0003610934   36109.34     
     45000   482.09472      417.2404       64.854313      307.63848      771.44629      0.40101743     18421.214      0.00037883661  37883.661    
     45250   457.01346      399.00374      58.009716      294.19228      885.33919      0.40101743     18421.214      0.00037206097  37206.097    
     45500   479.49202      422.26862      57.223394      311.34587      682.26216      0.40101743     18421.214      0.00038717833  38717.833    
     45750   475.4386       423.88987      51.548736      312.54124      485.78485      0.40101743     18421.214      0.00034879332  34879.332    
     46000   457.96559      406.75585      51.209739      299.90804      796.74847      0.40101743     18421.214      0.00037139067  37139.067    
     46250   451.11214      399.07328      52.038867      294.24355      1296.0103      0.40101743     18421.214      0.00037094789  37094.789    
     46500   456.26004      400.82504      55.434996      295.53515      804.13724      0.40101743     18421.214      0.00034800251  34800.251    
     46750   484.83878      423.44547      61.393306      312.21359      739.0772       0.40101743     18421.214      0.00032355637  32355.637    
     47000   452.71791      397.91028      54.807633      293.38605      1375.7358      0.40101743     18421.214      0.0004128281   41282.81     
     47250   484.7493       423.14379      61.605509      311.99115      1114.0265      0.40101743     18421.214      0.00038913287  38913.287    
     47500   468.97997      415.91453      53.06544       306.66089      800.0316       0.40101743     18421.214      0.00039685175  39685.175    
     47750   476.52748      414.42469      62.102791      305.56241      1051.905       0.40101743     18421.214      0.00034580707  34580.707    
     48000   470.18287      409.4092       60.773672      301.8644       900.62266      0.40101743     18421.214      0.00039905516  39905.516    
     48250   463.47836      406.58771      56.890653      299.78407      842.53325      0.40101743     18421.214      0.00036043092  36043.092    
     48500   448.3639       383.88311      64.480791      283.04358      1013.0527      0.40101743     18421.214      0.00034992233  34992.233    
     48750   472.88437      420.07755      52.80682       309.73036      1166.5579      0.40101743     18421.214      0.00035373844  35373.844    
     49000   478.18598      422.06394      56.122039      311.19496      1025.9119      0.40101743     18421.214      0.00037835567  37835.567    
     49250   442.12201      387.17192      54.950089      285.46847      1089.5494      0.40101743     18421.214      0.00034882538  34882.538    
     49500   456.93046      401.37993      55.550523      295.94428      685.57653      0.40101743     18421.214      0.0003535074   35350.74     
     49750   478.07282      413.37544      64.697386      304.78877      193.34441      0.40101743     18421.214      0.00035337796  35337.796    
     50000   451.13695      404.6923       46.444651      298.38655      1019.0897      0.40101743     18421.214      0.00037427729  37427.729    
     50250   469.13607      410.61509      58.520984      302.75352      333.651        0.40101743     18421.214      0.0003802054   38020.54     
     50500   481.19463      414.30159      66.893039      305.47164      595.84983      0.40101743     18421.214      0.00034988589  34988.589    
     50750   458.09739      401.38388      56.713514      295.94719      709.40177      0.40101743     18421.214      0.00036341953  36341.953    
     51000   466.65063      403.55346      63.097171      297.54686      869.04425      0.40101743     18421.214      0.00034278117  34278.117    
     51250   433.71915      383.99084      49.728309      283.12301      980.46541      0.40101743     18421.214      0.00036360815  36360.815    
     51500   465.16003      408.47365      56.686384      301.1746       956.03347      0.40101743     18421.214      0.00034564539  34564.539    
     51750   476.69813      422.10354      54.59459       311.22415      1000.2057      0.40101743     18421.214      0.00034952546  34952.546    
     52000   484.96223      421.37572      63.586508      310.68752      673.49436      0.40101743     18421.214      0.00038723754  38723.754    
     52250   473.26869      414.14892      59.119771      305.35908      1220.0417      0.40101743     18421.214      0.00034719552  34719.552    
     52500   470.31256      415.83332      54.47924       306.60102      791.25423      0.40101743     18421.214      0.000358053    35805.3      
     52750   473.00383      404.60795      68.395878      298.32436      937.9787       0.40101743     18421.214      0.00038240844  38240.844    
     53000   496.26631      437.52796      58.738356      322.59684      395.29089      0.40101743     18421.214      0.00036994665  36994.665    
     53250   463.10657      399.28676      63.819807      294.40095      776.81494      0.40101743     18421.214      0.00037224398  37224.398    
     53500   456.98799      399.12959      57.8584        294.28507      1373.7673      0.40101743     18421.214      0.00037273964  37273.964    
     53750   481.83539      421.29489      60.540504      310.62792      521.07898      0.40101743     18421.214      0.00032862951  32862.951    
     54000   438.3443       380.00089      58.34341       280.18115      978.56359      0.40101743     18421.214      0.00037362421  37362.421    
     54250   444.70212      385.88135      58.820767      284.51692      960.92234      0.40101743     18421.214      0.00038369683  38369.683    
     54500   432.26015      385.71634      46.543806      284.39525      648.77618      0.40101743     18421.214      0.00037435635  37435.635    
     54750   450.01884      402.69169      47.327147      296.91146      850.31942      0.40101743     18421.214      0.00037937938  37937.938    
     55000   470.89764      420.84645      50.051183      310.29728      391.95157      0.40101743     18421.214      0.00035789328  35789.328    
     55250   483.90499      424.55557      59.349426      313.03208      775.03744      0.40101743     18421.214      0.00037210274  37210.274    
     55500   462.75491      399.22377      63.531141      294.35451      847.55708      0.40101743     18421.214      0.00036436465  36436.465    
     55750   466.26466      419.47255      46.792109      309.28428      1096.1414      0.40101743     18421.214      0.00038324105  38324.105    
     56000   446.22351      396.52511      49.698404      292.36474      825.45905      0.40101743     18421.214      0.0003671528   36715.28     
     56250   475.00151      422.00836      52.993143      311.15398      1147.1855      0.40101743     18421.214      0.00035549853  35549.853    
     56500   464.82087      409.92709      54.893777      302.24625      611.83114      0.40101743     18421.214      0.00035133747  35133.747    
     56750   482.16945      423.86023      58.30922       312.51939      419.61939      0.40101743     18421.214      0.00038148138  38148.138    
     57000   478.61921      419.44012      59.179092      309.26037      1052.9081      0.40101743     18421.214      0.00032768445  32768.445    
     57250   488.34144      430.77849      57.562953      317.62034      718.92176      0.40101743     18421.214      0.00036736793  36736.793    
     57500   492.69317      440.23739      52.455779      324.59455      1178.5117      0.40101743     18421.214      0.00035585292  35585.292    
     57750   467.61539      418.61351      49.001878      308.6509       484.42778      0.40101743     18421.214      0.00040788838  40788.838    
     58000   475.16632      424.17003      50.996289      312.74781      760.52453      0.40101743     18421.214      0.00035928748  35928.748    
     58250   460.28547      411.94282      48.342647      303.73249      488.29063      0.40101743     18421.214      0.00039139756  39139.756    
     58500   462.94844      406.04946      56.89898       299.38721      824.47448      0.40101743     18421.214      0.0003622337   36223.37     
     58750   454.10455      396.47282      57.631726      292.32619      880.73329      0.40101743     18421.214      0.00035745765  35745.765    
     59000   475.84687      419.13504      56.711829      309.03543      524.6797       0.40101743     18421.214      0.00032972942  32972.942    
     59250   472.84476      413.01069      59.834073      304.51984      1076.9964      0.40101743     18421.214      0.00037625641  37625.641    
     59500   472.44294      408.36883      64.074118      301.09732      963.59036      0.40101743     18421.214      0.00038208909  38208.909    
     59750   470.71376      407.68428      63.029482      300.59259      993.17871      0.40101743     18421.214      0.00035758809  35758.809    
     60000   450.66089      392.15514      58.50575       289.14269      1160.6097      0.40101743     18421.214      0.00035955948  35955.948    
     60250   474.20581      414.35185      59.85396       305.5087       832.92791      0.40101743     18421.214      0.00034978129  34978.129    
     60500   479.00592      427.68818      51.317734      315.34181      681.28042      0.40101743     18421.214      0.00035919072  35919.072    
     60750   445.55984      396.23604      49.323803      292.1516       816.42049      0.40101743     18421.214      0.00039895373  39895.373    
     61000   478.82265      427.39489      51.427758      315.12556      780.53884      0.40101743     18421.214      0.00038912521  38912.521    
     61250   441.59628      383.81034      57.785942      282.98992      752.36249      0.40101743     18421.214      0.00040265711  40265.711    
     61500   474.86849      412.44385      62.424636      304.1019       875.88055      0.40101743     18421.214      0.00038080841  38080.841    
     61750   479.64675      425.91093      53.735817      314.03141      1007.5593      0.40101743     18421.214      0.00040880702  40880.702    
     62000   469.18474      417.33035      51.854391      307.7048       1372.1235      0.40101743     18421.214      0.00035537766  35537.766    
     62250   493.43707      444.23714      49.199933      327.54363      1362.0303      0.40101743     18421.214      0.00037769268  37769.268    
     62500   441.29095      389.78383      51.507124      287.39428      887.97537      0.40101743     18421.214      0.00038407926  38407.926    
     62750   475.23679      426.69278      48.544012      314.60788      810.26985      0.40101743     18421.214      0.00040766003  40766.003    
     63000   492.45449      434.06186      58.39263       320.04123      306.11856      0.40101743     18421.214      0.00036417647  36417.647    
     63250   472.58789      417.69344      54.894445      307.97251      902.08342      0.40101743     18421.214      0.00040365213  40365.213    
     63500   467.14923      413.49384      53.655391      304.87608      487.11796      0.40101743     18421.214      0.00035370203  35370.203    
     63750   458.45211      406.33455      52.11756       299.59741      592.52487      0.40101743     18421.214      0.0003489841   34898.41     
     64000   475.53646      421.95186      53.5846        311.11232      947.34079      0.40101743     18421.214      0.00031233368  31233.368    
     64250   491.71531      427.11817      64.597138      314.92153      1248.0442      0.40101743     18421.214      0.00039460784  39460.784    
     64500   453.85749      394.6139       59.243596      290.95557      512.79265      0.40101743     18421.214      0.00041331252  41331.252    
     64750   474.40654      416.50906      57.897478      307.09925      1649.527       0.40101743     18421.214      0.00035614345  35614.345    
     65000   465.02003      408.32496      56.695073      301.06497      579.74976      0.40101743     18421.214      0.00038459453  38459.453    
     65250   481.28863      417.28378      64.004847      307.67047      914.27994      0.40101743     18421.214      0.00035605468  35605.468    
     65500   449.01206      394.65704      54.355017      290.98738      435.17944      0.40101743     18421.214      0.000364294    36429.4      
     65750   439.96873      397.29569      42.673034      292.93291      609.29226      0.40101743     18421.214      0.00038093114  38093.114    
     66000   487.06539      429.49755      57.567834      316.67589      910.0127       0.40101743     18421.214      0.00037869057  37869.057    
     66250   473.09266      415.09497      57.997696      306.05661      738.89735      0.40101743     18421.214      0.00035750694  35750.694    
     66500   452.02344      395.11507      56.908366      291.3251       1323.6918      0.40101743     18421.214      0.00035345863  35345.863    
     66750   436.61667      381.50821      55.108463      281.29252      801.9313       0.40101743     18421.214      0.00036436757  36436.757    
     67000   444.16025      391.65148      52.508771      288.77133      726.17467      0.40101743     18421.214      0.00034826575  34826.575    
     67250   446.90973      398.0374       48.872323      293.47978      456.42963      0.40101743     18421.214      0.00036886462  36886.462    
     67500   502.19216      442.97974      59.21242       326.61653      795.94371      0.40101743     18421.214      0.00037500932  37500.932    
     67750   457.45149      404.71238      52.739114      298.40136      594.03605      0.40101743     18421.214      0.00033284876  33284.876    
     68000   451.03634      395.46042      55.575927      291.57972      996.80153      0.40101743     18421.214      0.00034888063  34888.063    
     68250   457.99446      404.16226      53.8322        297.99574      611.66641      0.40101743     18421.214      0.00034101072  34101.072    
     68500   454.76365      403.21266      51.550989      297.29559      1164.7391      0.40101743     18421.214      0.0003811272   38112.72     
     68750   436.81248      388.00374      48.808746      286.08179      939.25332      0.40101743     18421.214      0.00035993698  35993.698    
     69000   464.02769      409.35448      54.673209      301.82405      1096.6418      0.40101743     18421.214      0.00039090394  39090.394    
     69250   463.68511      404.2205       59.464611      298.03868      1029.0005      0.40101743     18421.214      0.00038362101  38362.101    
     69500   500.58715      430.99795      69.589197      317.78216      1112.9428      0.40101743     18421.214      0.00032003035  32003.035    
     69750   415.84532      368.6783       47.167025      271.83281      824.29986      0.40101743     18421.214      0.00037202861  37202.861    
     70000   461.32202      395.58582      65.736198      291.67219      1029.5736      0.40101743     18421.214      0.00035131058  35131.058    
     70250   459.57394      396.05557      63.518371      292.01854      686.45712      0.40101743     18421.214      0.00033482965  33482.965    
     70500   484.94681      420.73726      64.209554      310.21677      774.53594      0.40101743     18421.214      0.00036023461  36023.461    
     70750   426.18285      378.90497      47.277878      279.37311      786.80238      0.40101743     18421.214      0.00037748083  37748.083    
     71000   486.74672      428.16188      58.584844      315.69107      450.72992      0.40101743     18421.214      0.00034050075  34050.075    
     71250   444.82882      385.68507      59.143757      284.37219      679.62188      0.40101743     18421.214      0.00032299423  32299.423    
     71500   457.91051      400.11739      57.793127      295.01339      594.35345      0.40101743     18421.214      0.00036872492  36872.492    
     71750   471.33179      412.58923      58.742555      304.20909      1366.4621      0.40101743     18421.214      0.00038488749  38488.749    
     72000   449.54206      395.37487      54.16719       291.51665      708.24076      0.40101743     18421.214      0.00035953584  35953.584    
     72250   452.29806      390.3324       61.965655      287.79875      991.3466       0.40101743     18421.214      0.00037593772  37593.772    
     72500   463.91498      409.72571      54.189261      302.09777      1074.7124      0.40101743     18421.214      0.00034436699  34436.699    
     72750   461.79778      404.30387      57.493906      298.10016      1034.9368      0.40101743     18421.214      0.00036374642  36374.642    
     73000   482.15961      439.45335      42.70626       324.01647      1079.576       0.40101743     18421.214      0.00037781866  37781.866    
     73250   455.83657      390.94015      64.896422      288.24686      546.02628      0.40101743     18421.214      0.00039111003  39111.003    
     73500   473.03671      421.70893      51.32778       310.9332       963.68915      0.40101743     18421.214      0.00040913169  40913.169    
     73750   462.30949      408.78286      53.526635      301.40259      1188.3301      0.40101743     18421.214      0.00038024134  38024.134    
     74000   494.9803       435.34479      59.635509      320.98715      1046.0271      0.40101743     18421.214      0.00038694427  38694.427    
     74250   465.65788      414.01911      51.638776      305.26336      850.65812      0.40101743     18421.214      0.00036381426  36381.426    
     74500   469.11919      404.19482      64.924372      298.01975      337.70533      0.40101743     18421.214      0.0003544301   35443.01     
     74750   473.44682      412.32695      61.119863      304.01571      553.27798      0.40101743     18421.214      0.0003566822   35668.22     
     75000   456.94384      403.52015      53.423694      297.5223       1213.1537      0.40101743     18421.214      0.00035104895  35104.895    
     75250   483.03194      426.11698      56.914963      314.18333      1193.2474      0.40101743     18421.214      0.00035028041  35028.041    
     75500   448.70797      390.42373      58.284235      287.86609      689.73581      0.40101743     18421.214      0.0003581292   35812.92     
     75750   488.70172      433.51852      55.183192      319.64062      946.56983      0.40101743     18421.214      0.00035537519  35537.519    
     76000   466.04021      414.67446      51.365756      305.74656      1056.1041      0.40101743     18421.214      0.00037969257  37969.257    
     76250   469.84708      411.1582       58.688881      303.15397      772.58355      0.40101743     18421.214      0.00037329708  37329.708    
     76500   494.41721      432.63483      61.782378      318.98905      992.99925      0.40101743     18421.214      0.00035598752  35598.752    
     76750   467.11173      408.9733       58.138429      301.543        998.74231      0.40101743     18421.214      0.00035960519  35960.519    
     77000   491.88754      428.30929      63.578254      315.79976      1151.016       0.40101743     18421.214      0.00033145133  33145.133    
     77250   458.89246      406.38549      52.506979      299.63496      853.10184      0.40101743     18421.214      0.00035150009  35150.009    
     77500   436.37844      380.86539      55.513045      280.81856      761.52776      0.40101743     18421.214      0.00037257316  37257.316    
     77750   472.70667      410.39594      62.310735      302.59194      494.28064      0.40101743     18421.214      0.00034572923  34572.923    
     78000   481.23861      413.32612      67.912489      304.75242      682.44553      0.40101743     18421.214      0.00035372182  35372.182    
     78250   510.91459      448.78007      62.134518      330.89322      846.6003       0.40101743     18421.214      0.0003481904   34819.04     
     78500   441.70619      381.4628       60.243396      281.25904      801.71556      0.40101743     18421.214      0.00037059034  37059.034    
     78750   441.21775      386.54473      54.673018      285.00604      716.72913      0.40101743     18421.214      0.00036607054  36607.054    
     79000   449.15229      402.1584       46.993898      296.51826      889.42148      0.40101743     18421.214      0.0003411205   34112.05     
     79250   428.03202      378.3172       49.714812      278.93974      931.66526      0.40101743     18421.214      0.00035991626  35991.626    
     79500   456.79385      396.28906      60.50479       292.1907       762.87238      0.40101743     18421.214      0.00038011578  38011.578    
     79750   469.6874       410.85449      58.832911      302.93004      625.16009      0.40101743     18421.214      0.0003727937   37279.37     
     80000   463.44343      400.00238      63.441051      294.92859      695.76423      0.40101743     18421.214      0.00034626172  34626.172    
     80250   458.48863      409.27039      49.218238      301.76205      819.31792      0.40101743     18421.214      0.00040291326  40291.326    
     80500   453.6389       401.09227      52.546626      295.73219      391.158        0.40101743     18421.214      0.00038468745  38468.745    
     80750   485.07895      426.77926      58.299696      314.67164      781.65152      0.40101743     18421.214      0.0004098921   40989.21     
     81000   435.22158      374.60179      60.61979       276.2003       860.33512      0.40101743     18421.214      0.00040407066  40407.066    
     81250   493.3089       430.43994      62.868959      317.37073      1064.2986      0.40101743     18421.214      0.00032969675  32969.675    
     81500   477.89014      419.43636      58.453781      309.2576       1718.1354      0.40101743     18421.214      0.00035049128  35049.128    
     81750   441.46312      381.18605      60.277067      281.05499      724.03722      0.40101743     18421.214      0.00035915521  35915.521    
     82000   476.53142      416.0313       60.500113      306.74699      1192.3281      0.40101743     18421.214      0.00036055564  36055.564    
     82250   455.91756      402.92442      52.99314       297.08306      794.01036      0.40101743     18421.214      0.00034069871  34069.871    
     82500   470.87303      413.58549      57.287542      304.94365      1066.7099      0.40101743     18421.214      0.00032483358  32483.358    
     82750   466.49199      410.89636      55.595631      302.96091      863.28828      0.40101743     18421.214      0.00033016669  33016.669    
     83000   494.4131       437.16003      57.253075      322.32556      1280.6129      0.40101743     18421.214      0.0003847318   38473.18     
     83250   453.45299      399.82648      53.626514      294.7989       988.63422      0.40101743     18421.214      0.0003485899   34858.99     
     83500   475.96879      418.28135      57.687446      308.40599      1180.4643      0.40101743     18421.214      0.00036477357  36477.357    
     83750   461.68181      407.66345      54.018355      300.57723      480.91011      0.40101743     18421.214      0.00032567543  32567.543    
     84000   475.90889      414.94567      60.963216      305.94653      1340.6893      0.40101743     18421.214      0.00032544759  32544.759    
     84250   466.1565       405.69286      60.463636      299.12428      984.35265      0.40101743     18421.214      0.0003651675   36516.75     
     84500   459.87256      405.74887      54.123691      299.16558      997.35233      0.40101743     18421.214      0.0003480718   34807.18     
     84750   450.06115      395.56653      54.494625      291.65796      950.79615      0.40101743     18421.214      0.00036127716  36127.716    
     85000   432.37912      376.9296       55.449515      277.91664      489.95598      0.40101743     18421.214      0.00033992672  33992.672    
     85250   461.47705      398.05178      63.42527       293.49038      1006.3023      0.40101743     18421.214      0.00035428008  35428.008    
     85500   488.82588      427.45757      61.368304      315.17178      1139.4591      0.40101743     18421.214      0.00035425942  35425.942    
     85750   466.91516      417.55278      49.362378      307.8688       868.3918       0.40101743     18421.214      0.00037032796  37032.796    
     86000   435.16211      380.77035      54.391766      280.74848      1030.522       0.40101743     18421.214      0.00036832443  36832.443    
     86250   459.195        400.76484      58.430155      295.49077      589.16296      0.40101743     18421.214      0.0003270268   32702.68     
     86500   455.51966      396.72649      58.793161      292.51323      872.78574      0.40101743     18421.214      0.00038408875  38408.875    
     86750   472.71042      419.24228      53.468138      309.1145       1091.7037      0.40101743     18421.214      0.00036925197  36925.197    
     87000   458.28734      410.47809      47.809253      302.65251      697.96147      0.40101743     18421.214      0.00037392658  37392.658    
     87250   470.44716      408.10935      62.337813      300.906        598.09202      0.40101743     18421.214      0.00036981824  36981.824    
     87500   452.40339      395.3639       57.03949       291.50856      536.16665      0.40101743     18421.214      0.00037288172  37288.172    
     87750   461.52463      409.18248      52.342151      301.69723      718.71688      0.40101743     18421.214      0.00034326549  34326.549    
     88000   458.6335       402.6617       55.9718        296.88936      1266.678       0.40101743     18421.214      0.00037136702  37136.702    
     88250   453.15734      402.87509      50.282252      297.04669      338.25423      0.40101743     18421.214      0.00034627385  34627.385    
     88500   490.20425      428.94459      61.259662      316.26818      856.97304      0.40101743     18421.214      0.00040899276  40899.276    
     88750   444.94982      395.16126      49.788562      291.35915      804.95026      0.40101743     18421.214      0.00032896935  32896.935    
     89000   445.47502      379.55213      65.922883      279.85028      323.49198      0.40101743     18421.214      0.0003354161   33541.61     
     89250   474.94533      412.54493      62.400408      304.17642      821.89512      0.40101743     18421.214      0.00033825461  33825.461    
     89500   429.45788      376.99236      52.465523      277.96291      855.34847      0.40101743     18421.214      0.00035330852  35330.852    
     89750   491.91871      434.21271      57.705999      320.15246      1450.1373      0.40101743     18421.214      0.00033852084  33852.084    
     90000   444.8588       386.45253      58.406273      284.93805      1110.3063      0.40101743     18421.214      0.00032614407  32614.407    
     90250   488.90778      438.06982      50.837968      322.99636      1122.0324      0.40101743     18421.214      0.00032855805  32855.805    
     90500   458.58432      417.05838      41.525947      307.50427      719.47         0.40101743     18421.214      0.00039154858  39154.858    
     90750   459.42724      400.51519      58.912055      295.30669      626.85335      0.40101743     18421.214      0.00036265582  36265.582    
     91000   458.38656      400.98498      57.401588      295.65308      966.89823      0.40101743     18421.214      0.0003460111   34601.11     
     91250   475.0088       414.4991       60.509705      305.61727      860.19788      0.40101743     18421.214      0.00034400364  34400.364    
     91500   471.24342      418.11619      53.127229      308.28421      868.4254       0.40101743     18421.214      0.00036998982  36998.982    
     91750   465.2247       408.3725       56.852201      301.10002      941.90628      0.40101743     18421.214      0.0003829722   38297.22     
     92000   505.08107      431.53283      73.548234      318.17653      702.05307      0.40101743     18421.214      0.00035440461  35440.461    
     92250   477.84892      414.1849       63.664018      305.3856       149.6904       0.40101743     18421.214      0.00036537141  36537.141    
     92500   467.43084      406.89174      60.539097      300.00823      635.29692      0.40101743     18421.214      0.0003540038   35400.38     
     92750   474.82766      420.8402       53.987458      310.29267      616.11755      0.40101743     18421.214      0.00037354869  37354.869    
     93000   438.57662      383.09951      55.477104      282.46582      821.00901      0.40101743     18421.214      0.00036324965  36324.965    
     93250   425.94362      371.1951       54.748519      273.68849      719.643        0.40101743     18421.214      0.00036067652  36067.652    
     93500   471.14567      410.31684      60.828825      302.53362      570.27163      0.40101743     18421.214      0.00037425379  37425.379    
     93750   489.31909      432.66692      56.65217       319.01272      1205.7345      0.40101743     18421.214      0.00038042363  38042.363    
     94000   460.04245      406.69319      53.349265      299.86184      627.95403      0.40101743     18421.214      0.00035448047  35448.047    
     94250   496.09259      429.98002      66.112572      317.03162      942.91711      0.40101743     18421.214      0.00034293856  34293.856    
     94500   471.73237      415.30317      56.429204      306.21013      1099.7169      0.40101743     18421.214      0.00036600618  36600.618    
     94750   483.11706      421.40232      61.714743      310.70713      477.07366      0.40101743     18421.214      0.00037720198  37720.198    
     95000   472.11252      418.54595      53.566574      308.60108      394.91812      0.40101743     18421.214      0.0003803964   38039.64     
     95250   466.37655      403.9327       62.443843      297.82649      674.02929      0.40101743     18421.214      0.00036294075  36294.075    
     95500   469.92778      413.46474      56.463036      304.85462      1115.7007      0.40101743     18421.214      0.00038840385  38840.385    
     95750   466.5392       406.82711      59.712083      299.96058      1081.6874      0.40101743     18421.214      0.00036961116  36961.116    
     96000   457.33901      411.73563      45.603377      303.57972      716.21131      0.40101743     18421.214      0.00038640342  38640.342    
     96250   491.0582       436.43567      54.622527      321.79148      1236.0594      0.40101743     18421.214      0.00035401473  35401.473    
     96500   465.23937      412.5604       52.678974      304.18783      821.60254      0.40101743     18421.214      0.00036320699  36320.699    
     96750   442.95605      396.11626      46.839794      292.06329      965.45491      0.40101743     18421.214      0.000362197    36219.7      
     97000   477.12955      422.17077      54.958779      311.27372      1149.9827      0.40101743     18421.214      0.00036322137  36322.137    
     97250   456.79715      401.20715      55.590001      295.81689      893.95005      0.40101743     18421.214      0.00032697937  32697.937    
     97500   446.58461      394.54383      52.040783      290.90391      1059.9539      0.40101743     18421.214      0.00038657834  38657.834    
     97750   447.52325      387.34346      60.179798      285.59495      1033.0207      0.40101743     18421.214      0.00039631771  39631.771    
     98000   440.61433      379.82507      60.789263      280.05151      620.80483      0.40101743     18421.214      0.00036004295  36004.295    
     98250   481.28468      421.01456      60.27012       310.42123      821.54049      0.40101743     18421.214      0.00034537601  34537.601    
     98500   516.88142      457.2299       59.65152       337.12342      701.11369      0.40101743     18421.214      0.00039117496  39117.496    
     98750   455.47947      395.2241       60.25537       291.40548      970.82292      0.40101743     18421.214      0.00037084091  37084.091    
     99000   495.55712      432.80851      62.748605      319.11711      899.82988      0.40101743     18421.214      0.00038041626  38041.626    
     99250   477.54257      420.27683      57.265743      309.87729      717.82537      0.40101743     18421.214      0.00034523251  34523.251    
     99500   474.21204      423.15955      51.052491      312.00277      508.89179      0.40101743     18421.214      0.0003707057   37070.57     
     99750   474.67059      418.79049      55.880095      308.78139      731.15103      0.40101743     18421.214      0.00033479376  33479.376    
    100000   473.64801      423.91012      49.73789       312.55618      392.37802      0.40101743     18421.214      0.00036140364  36140.364    
    100250   454.52839      398.33936      56.18903       293.70242      917.60976      0.40101743     18421.214      0.00037248763  37248.763    
    100500   461.23501      404.97037      56.264639      298.59157      847.1393       0.40101743     18421.214      0.00038776322  38776.322    
    100750   459.14341      397.30783      61.835577      292.94185      506.45629      0.40101743     18421.214      0.00036297828  36297.828    
    101000   466.90319      411.55956      55.343628      303.4499       1118.4612      0.40101743     18421.214      0.00038786847  38786.847    
    101250   480.01212      422.406        57.606119      311.44717      992.91766      0.40101743     18421.214      0.00035690407  35690.407    
    101500   492.78507      432.70281      60.08226       319.03918      804.29792      0.40101743     18421.214      0.00035992173  35992.173    
    101750   473.98475      407.6746       66.310151      300.58545      751.70026      0.40101743     18421.214      0.00034606876  34606.876    
    102000   453.64815      391.19586      62.452281      288.4354       931.73844      0.40101743     18421.214      0.00038273488  38273.488    
    102250   460.11542      401.17625      58.939163      295.79411      1261.949       0.40101743     18421.214      0.00036662116  36662.116    
    102500   483.74778      434.17266      49.57512       320.12292      857.66054      0.40101743     18421.214      0.00037655936  37655.936    
    102750   470.27537      415.27         55.005373      306.18567      533.58347      0.40101743     18421.214      0.00036817459  36817.459    
    103000   498.56884      444.34679      54.222042      327.62449      1209.4793      0.40101743     18421.214      0.00036688128  36688.128    
    103250   449.55296      400.61238      48.940585      295.37835      642.54838      0.40101743     18421.214      0.0003546414   35464.14     
    103500   465.80531      408.42359      57.38172       301.13769      845.88273      0.40101743     18421.214      0.0003566102   35661.02     
    103750   463.16567      405.27788      57.887792      298.81831      407.35681      0.40101743     18421.214      0.00034723536  34723.536    
    104000   458.32815      398.04873      60.279413      293.48813      1073.766       0.40101743     18421.214      0.00039339697  39339.697    
    104250   467.95078      416.12242      51.828366      306.81417      861.44085      0.40101743     18421.214      0.00035517686  35517.686    
    104500   474.8129       409.71905      65.093851      302.09286      790.23501      0.40101743     18421.214      0.00037252708  37252.708    
    104750   459.85223      401.8022       58.050035      296.25563      1154.3304      0.40101743     18421.214      0.00034521993  34521.993    
    105000   469.13845      410.32529      58.813159      302.53985      1189.7974      0.40101743     18421.214      0.00036670793  36670.793    
    105250   455.86705      391.30378      64.563263      288.51497      1093.6825      0.40101743     18421.214      0.00034645968  34645.968    
    105500   475.3892       412.90926      62.47994       304.44505      833.69749      0.40101743     18421.214      0.00036311582  36311.582    
    105750   473.29932      420.85336      52.445957      310.30238      687.04235      0.40101743     18421.214      0.00034588889  34588.889    
    106000   446.30294      388.36573      57.937216      286.34869      674.61868      0.40101743     18421.214      0.00036454361  36454.361    
    106250   472.7965       418.73161      54.064899      308.73797      481.54894      0.40101743     18421.214      0.00037074842  37074.842    
    106500   462.69886      407.63002      55.068848      300.55258      823.28361      0.40101743     18421.214      0.00038589772  38589.772    
    106750   487.97969      440.55465      47.425037      324.82848      872.58103      0.40101743     18421.214      0.00036581512  36581.512    
    107000   461.49889      406.81639      54.682503      299.95268      1216.857       0.40101743     18421.214      0.00037769917  37769.917    
[...]
    468500   480.40123      407.83282      72.568411      300.70211      1207.6337      0.40101743     18421.214      0.0003608321   36083.21     
    468750   463.89173      400.48745      63.404284      295.28624      1762.0699      0.40101743     18421.214      0.00036550563  36550.563    
    469000   466.16167      406.06108      60.100594      299.39578      1014.2046      0.40101743     18421.214      0.00035358724  35358.724    
    469250   517.23459      457.90243      59.332161      337.61929      988.59922      0.40101743     18421.214      0.00040414908  40414.908    
    469500   445.5641       385.17874      60.385356      283.99887      1027.233       0.40101743     18421.214      0.00041385472  41385.472    
    469750   444.75759      389.64691      55.11068       287.29333      566.92154      0.40101743     18421.214      0.00038487369  38487.369    
    470000   488.09862      431.33513      56.763485      318.03077      851.17352      0.40101743     18421.214      0.00038224447  38224.447    
    470250   467.78825      412.4557       55.33255       304.11064      937.95296      0.40101743     18421.214      0.00038798186  38798.186    
    470500   486.31539      431.12184      55.193554      317.8735       849.66184      0.40101743     18421.214      0.00040302556  40302.556    
    470750   479.14593      425.5005       53.645428      313.72879      1083.1984      0.40101743     18421.214      0.00036965137  36965.137    
    471000   462.03546      411.34528      50.690178      303.2919       1242.0277      0.40101743     18421.214      0.00036237112  36237.112    
    471250   457.87993      401.76341      56.116513      296.22703      892.05209      0.40101743     18421.214      0.00036893448  36893.448    
    471500   425.55132      362.45882      63.092501      267.24708      663.97861      0.40101743     18421.214      0.00034362907  34362.907    
    471750   467.2287       403.8526       63.376097      297.76743      756.30481      0.40101743     18421.214      0.0003785659   37856.59     
    472000   493.92561      440.76399      53.161623      324.98282      887.56159      0.40101743     18421.214      0.00034807602  34807.602    
    472250   475.95686      416.21152      59.745337      306.87987      897.90396      0.40101743     18421.214      0.00035675909  35675.909    
    472500   485.85998      417.95172      67.908258      308.16295      1146.3382      0.40101743     18421.214      0.00034169082  34169.082    
    472750   488.82122      427.81095      61.010274      315.43232      883.98393      0.40101743     18421.214      0.00037218454  37218.454    
    473000   481.17324      421.37916      59.794084      310.69005      578.54377      0.40101743     18421.214      0.00036187559  36187.559    
    473250   480.39795      422.07694      58.321015      311.20454      1219.3314      0.40101743     18421.214      0.0003385257   33852.57     
    473500   450.96236      402.08053      48.881822      296.46085      844.27875      0.40101743     18421.214      0.00036636019  36636.019    
    473750   471.7318       408.33769      63.394113      301.07435      749.50949      0.40101743     18421.214      0.00037425993  37425.993    
    474000   458.85127      390.9406       67.910674      288.24718      928.02617      0.40101743     18421.214      0.0003408295   34082.95     
    474250   479.88674      415.7558       64.130935      306.54386      1348.0996      0.40101743     18421.214      0.00033809952  33809.952    
    474500   491.31459      442.38645      48.928146      326.17909      640.23775      0.40101743     18421.214      0.00036716483  36716.483    
    474750   447.62839      399.50927      48.119116      294.56502      807.26138      0.40101743     18421.214      0.00034963964  34963.964    
    475000   468.27462      413.65423      54.620395      304.99433      1138.7117      0.40101743     18421.214      0.00035210481  35210.481    
    475250   461.53672      416.83776      44.698967      307.3416       955.69611      0.40101743     18421.214      0.00034690288  34690.288    
    475500   471.74765      413.3254       58.422246      304.75189      1194.1369      0.40101743     18421.214      0.00035955153  35955.153    
    475750   441.56941      386.02666      55.542748      284.62406      908.96284      0.40101743     18421.214      0.00034440509  34440.509    
    476000   473.48082      412.82871      60.652116      304.38566      496.15635      0.40101743     18421.214      0.00030607863  30607.863    
    476250   493.09122      434.36193      58.729285      320.26248      1079.7641      0.40101743     18421.214      0.00037593225  37593.225    
    476500   491.12228      426.851        64.271282      314.72454      429.48034      0.40101743     18421.214      0.00035482662  35482.662    
    476750   459.43583      406.60337      52.832464      299.79561      1110.7493      0.40101743     18421.214      0.00036877365  36877.365    
    477000   463.80121      413.99583      49.805387      305.2462       893.27029      0.40101743     18421.214      0.00038789195  38789.195    
    477250   448.58993      394.70698      53.882943      291.0242       846.52448      0.40101743     18421.214      0.00036940701  36940.701    
    477500   472.13595      397.88498      74.250971      293.3674       370.55318      0.40101743     18421.214      0.00033940137  33940.137    
    477750   450.12323      395.21823      54.905004      291.40116      854.58574      0.40101743     18421.214      0.00035239632  35239.632    
    478000   470.54663      412.59081      57.955817      304.21026      985.10559      0.40101743     18421.214      0.00037694244  37694.244    
    478250   497.44494      439.57189      57.873049      324.10387      1017.9046      0.40101743     18421.214      0.00038827304  38827.304    
    478500   472.74657      412.82942      59.91715       304.38619      970.03434      0.40101743     18421.214      0.00035024926  35024.926    
    478750   462.86275      403.40124      59.461512      297.43463      685.97017      0.40101743     18421.214      0.00037813134  37813.134    
    479000   473.33789      416.77183      56.566056      307.29299      826.93433      0.40101743     18421.214      0.00034942787  34942.787    
    479250   455.74533      391.62084      64.12449       288.74874      627.37841      0.40101743     18421.214      0.00036181433  36181.433    
    479500   465.84365      404.85444      60.989211      298.5061       881.69098      0.40101743     18421.214      0.00037077093  37077.093    
    479750   452.11339      395.52789      56.585494      291.62947      944.76888      0.40101743     18421.214      0.00034167278  34167.278    
    480000   493.52371      435.74137      57.782336      321.27956      825.747        0.40101743     18421.214      0.00036278056  36278.056    
    480250   480.1776       425.61079      54.566805      313.81011      914.14499      0.40101743     18421.214      0.0003578623   35786.23     
    480500   457.11368      403.73174      53.381942      297.67831      722.61702      0.40101743     18421.214      0.00037263427  37263.427    
    480750   468.53753      412.84603      55.691503      304.39843      1199.2075      0.40101743     18421.214      0.00035007314  35007.314    
    481000   452.91344      390.95965      61.953788      288.26123      901.78723      0.40101743     18421.214      0.00039104048  39104.048    
    481250   463.10445      408.06778      55.036666      300.87535      1009.5318      0.40101743     18421.214      0.0003794224   37942.24     
    481500   448.41449      380.59629      67.818195      280.62015      730.6372       0.40101743     18421.214      0.00037970791  37970.791    
    481750   463.84148      405.77179      58.069697      299.18247      932.41663      0.40101743     18421.214      0.00037729524  37729.524    
    482000   479.243        420.62398      58.619019      310.13325      390.85872      0.40101743     18421.214      0.00035084028  35084.028    
    482250   468.46065      413.17368      55.286965      304.64002      1342.4547      0.40101743     18421.214      0.00038593863  38593.863    
    482500   481.931        429.47196      52.459042      316.65702      1211.5676      0.40101743     18421.214      0.00035855555  35855.555    
    482750   470.96758      417.21508      53.752509      307.61981      1002.6268      0.40101743     18421.214      0.00033343892  33343.892    
    483000   487.94667      431.2279       56.718767      317.9517       994.03232      0.40101743     18421.214      0.00037582297  37582.297    
    483250   441.35363      392.41146      48.942169      289.33167      1070.0105      0.40101743     18421.214      0.00034247721  34247.721    
    483500   470.38781      416.86812      53.519685      307.36399      800.99972      0.40101743     18421.214      0.00035269602  35269.602    
    483750   469.54083      412.50751      57.033316      304.14884      823.11674      0.40101743     18421.214      0.0003496466   34964.66     
    484000   448.46125      395.20163      53.259618      291.38892      1073.5822      0.40101743     18421.214      0.00034146282  34146.282    
    484250   461.39862      402.76254      58.636078      296.96371      495.50002      0.40101743     18421.214      0.00034706251  34706.251    
    484500   502.70516      434.85549      67.849676      320.62638      1397.5674      0.40101743     18421.214      0.000372       37200        
    484750   446.46079      395.11023      51.350553      291.32153      546.21971      0.40101743     18421.214      0.00037277193  37277.193    
    485000   465.19846      407.69128      57.507184      300.59775      1056.6952      0.40101743     18421.214      0.00036473011  36473.011    
    485250   478.53224      424.93262      53.599618      313.31008      1079.1698      0.40101743     18421.214      0.00035300504  35300.504    
    485500   457.97559      408.0606       49.91499       300.87006      639.82127      0.40101743     18421.214      0.00034857977  34857.977    
    485750   467.03933      407.50172      59.537609      300.45798      1088.3473      0.40101743     18421.214      0.00038289809  38289.809    
    486000   470.41655      414.33096      56.085596      305.4933       829.2885       0.40101743     18421.214      0.00031467428  31467.428    
    486250   481.63982      421.89535      59.744471      311.07066      654.98298      0.40101743     18421.214      0.00035754426  35754.426    
    486500   486.2586       434.14476      52.113838      320.10235      906.99715      0.40101743     18421.214      0.00036440435  36440.435    
    486750   485.17862      429.05036      56.128265      316.34616      393.11106      0.40101743     18421.214      0.0003723519   37235.19     
    487000   497.44231      438.81666      58.625646      323.54703      696.30785      0.40101743     18421.214      0.00037295331  37295.331    
    487250   451.47284      410.1774       41.295436      302.43081      772.96131      0.40101743     18421.214      0.00037311916  37311.916    
    487500   457.39603      398.14277      59.25326       293.55747      700.24118      0.40101743     18421.214      0.00037130914  37130.914    
    487750   465.35068      409.2013       56.149387      301.71111      679.53034      0.40101743     18421.214      0.00037639769  37639.769    
    488000   479.74608      428.03862      51.707459      315.60019      187.01369      0.40101743     18421.214      0.00035797882  35797.882    
    488250   458.03586      398.94672      59.089143      294.15024      470.21635      0.40101743     18421.214      0.00038060305  38060.305    
    488500   460.05673      404.56633      55.4904        298.29367      1090.414       0.40101743     18421.214      0.0003663063   36630.63     
    488750   491.81585      434.37624      57.439606      320.27303      1042.8059      0.40101743     18421.214      0.00036395657  36395.657    
    489000   495.90538      434.17179      61.733589      320.12228      1208.3978      0.40101743     18421.214      0.00038255167  38255.167    
    489250   468.15585      408.87814      59.277707      301.47284      799.9688       0.40101743     18421.214      0.0003562476   35624.76     
    489500   449.22713      388.31598      60.911145      286.31201      1137.6454      0.40101743     18421.214      0.00036360711  36360.711    
    489750   455.81513      405.8547       49.96043       299.24361      712.62062      0.40101743     18421.214      0.00037384792  37384.792    
    490000   460.81344      408.90906      51.904379      301.49564      676.78476      0.40101743     18421.214      0.00037343795  37343.795    
    490250   461.36321      415.4649       45.898317      306.32937      894.44693      0.40101743     18421.214      0.00037776021  37776.021    
    490500   477.55489      426.92837      50.626522      314.78158      799.08184      0.40101743     18421.214      0.00035466205  35466.205    
    490750   449.96084      389.80956      60.151284      287.41325      503.59592      0.40101743     18421.214      0.00037372807  37372.807    
    491000   476.96485      423.93441      53.030433      312.57409      942.5883       0.40101743     18421.214      0.00039443999  39443.999    
    491250   448.14681      390.74493      57.401881      288.10291      383.66787      0.40101743     18421.214      0.0003670813   36708.13     
    491500   446.0638       389.81533      56.24847       287.41751      1134.3078      0.40101743     18421.214      0.00037291406  37291.406    
    491750   444.33718      381.09207      63.245109      280.9857       892.89749      0.40101743     18421.214      0.00039654669  39654.669    
    492000   495.25831      435.10142      60.156893      320.80771      1222.9152      0.40101743     18421.214      0.00036099522  36099.522    
    492250   509.21569      430.06328      79.152409      317.09301      678.49286      0.40101743     18421.214      0.00036491146  36491.146    
    492500   487.72506      431.47939      56.245674      318.13713      1225.2257      0.40101743     18421.214      0.00035840038  35840.038    
    492750   490.94975      433.87091      57.07884       319.90044      948.21239      0.40101743     18421.214      0.00035094093  35094.093    
    493000   472.25232      412.15723      60.095097      303.89057      979.71497      0.40101743     18421.214      0.00037024739  37024.739    
    493250   453.27127      398.26356      55.007704      293.64653      831.14175      0.40101743     18421.214      0.00035973465  35973.465    
    493500   480.04859      426.19452      53.854075      314.2405       811.87959      0.40101743     18421.214      0.00034564576  34564.576    
    493750   448.49701      393.15999      55.337019      289.88358      772.51299      0.40101743     18421.214      0.00035530483  35530.483    
    494000   466.99735      413.9263       53.071042      305.19494      1342.1191      0.40101743     18421.214      0.00035919824  35919.824    
    494250   474.94964      417.01714      57.932501      307.47386      1143.07        0.40101743     18421.214      0.00035011851  35011.851    
    494500   453.90368      381.66083      72.242845      281.40505      1023.2719      0.40101743     18421.214      0.00040349248  40349.248    
    494750   451.62376      392.49742      59.126342      289.39505      588.12862      0.40101743     18421.214      0.0003683171   36831.71     
    495000   511.63105      454.49305      57.137993      335.1055       1058.8855      0.40101743     18421.214      0.00039781818  39781.818    
    495250   459.66693      400.79881      58.868121      295.51581      1148.7712      0.40101743     18421.214      0.000374624    37462.4      
    495500   470.78914      407.54609      63.243052      300.49069      992.17703      0.40101743     18421.214      0.0003605204   36052.04     
    495750   505.59702      428.36304      77.233977      315.83939      817.35904      0.40101743     18421.214      0.00034037656  34037.656    
    496000   469.75138      399.07218      70.679205      294.24274      578.79517      0.40101743     18421.214      0.00033675303  33675.303    
    496250   462.62771      404.28789      58.339821      298.08837      672.70581      0.40101743     18421.214      0.00035962251  35962.251    
    496500   486.16096      427.71345      58.44751       315.36044      850.9188       0.40101743     18421.214      0.00037846237  37846.237    
    496750   469.54027      422.37431      47.165963      311.42379      1070.978       0.40101743     18421.214      0.00034293236  34293.236    
    497000   488.0561       434.81814      53.23796       320.59885      568.14865      0.40101743     18421.214      0.00037472029  37472.029    
    497250   486.43602      435.99231      50.443706      321.46458      671.74394      0.40101743     18421.214      0.00034778449  34778.449    
    497500   456.18115      405.88811      50.293043      299.26824      1171.0686      0.40101743     18421.214      0.00035647876  35647.876    
    497750   463.63946      408.75414      54.885326      301.38141      857.30718      0.40101743     18421.214      0.00034799808  34799.808    
    498000   475.95719      416.45183      59.505359      307.05705      961.82422      0.40101743     18421.214      0.00038119704  38119.704    
    498250   445.15774      387.36581      57.791932      285.61143      1144.599       0.40101743     18421.214      0.0003825567   38255.67     
    498500   503.29594      435.77708      67.518857      321.30589      1297.6191      0.40101743     18421.214      0.00035876275  35876.275    
    498750   452.84985      400.17287      52.676973      295.0543       932.47677      0.40101743     18421.214      0.00038138954  38138.954    
    499000   499.61524      440.073        59.542239      324.47334      737.69391      0.40101743     18421.214      0.000374818    37481.8      
    499250   485.8096       427.11194      58.697656      314.91693      693.62455      0.40101743     18421.214      0.00037720377  37720.377    
    499500   486.32202      432.78987      53.532155      319.10337      818.21934      0.40101743     18421.214      0.00037434192  37434.192    
    499750   470.19512      410.88392      59.3112        302.95174      548.59007      0.40101743     18421.214      0.00031725171  31725.171    
    500000   473.61244      422.8751       50.737348      311.79304      1385.9128      0.40101743     18421.214      0.00035397217  35397.217    
Loop time of 24.4261 on 4 procs for 500000 steps with 456 atoms

Performance: 1768.598 ns/day, 0.014 hours/ns, 20469.879 timesteps/s
99.7% CPU use with 4 MPI tasks x no OpenMP threads

MPI task timing breakdown:
Section |  min time  |  avg time  |  max time  |%varavg| %total
---------------------------------------------------------------
Pair    | 0.029156   | 0.029295   | 0.029399   |   0.1 |  0.12
Bond    | 4.5358     | 4.6541     | 4.7817     |   4.4 | 19.05
Neigh   | 8.7364     | 8.7416     | 8.7458     |   0.1 | 35.79
Comm    | 8.1081     | 8.2312     | 8.3519     |   3.4 | 33.70
Output  | 0.023011   | 0.031985   | 0.035009   |   2.9 |  0.13
Modify  | 2.3347     | 2.341      | 2.3551     |   0.5 |  9.58
Other   |            | 0.397      |            |       |  1.63

Nlocal:            114 ave         121 max         107 min
Histogram: 1 0 0 0 0 2 0 0 0 1
Nghost:        2264.75 ave        2285 max        2235 min
Histogram: 1 0 0 0 1 0 0 0 0 2
Neighs:        17684.2 ave       21000 max       14329 min
Histogram: 1 0 1 0 0 0 0 1 0 1

Total # of neighbors = 70737
Ave neighs/atom = 155.125
Ave special neighs/atom = 6.3157895
Neighbor list builds = 24785
Dangerous builds = 0

unfix 			f1
unfix 			f2

Total wall time: 0:00:34
