
#------------------------------------------------------------------------------#
# simulation settings
#------------------------------------------------------------------------------#

##### simulation variables

variable        seed 	equal  20902
variable        T       equal  300	    #K
variable        p       equal  0.0 	#bar
variable        damp_T  equal  100 		  	#K
variable        damp_P  equal  1000.0	  	#bar
variable        dT      equal  1.0 		 	#fs
variable        kb      equal  0.0019872041

## system setup ##

units           real
atom_style      full
boundary        p p p

pair_style      lj/cut/soft 1 0.5 12.5
bond_style      harmonic
angle_style     hybrid cosine/periodic fourier
dihedral_style  harmonic
improper_style  fourier

pair_modify 	tail yes mix arithmetic
special_bonds 	lj/coul 0.0 0.0 1.0

read_data 	 	../data.emin_sod-4c_Zn-2c_mim_fe
Reading data file ...
  triclinic box = (4.5054746 4.3760097 4.4164229) to (20.786525 20.913779 20.965143) with tilt (-0.95270579 -0.51398262 -1.0127119)
  1 by 2 by 2 MPI processor grid
  reading atoms ...
  276 atoms
  reading velocities ...
  276 velocities
  scanning bonds ...
  3 = max bonds/atom
  scanning angles ...
  6 = max angles/atom
  scanning dihedrals ...
  10 = max dihedrals/atom
  scanning impropers ...
  4 = max impropers/atom
  reading bonds ...
  312 bonds
  reading angles ...
  576 angles
  reading dihedrals ...
  624 dihedrals
  reading impropers ...
  360 impropers
Finding 1-2 1-3 1-4 neighbors ...
  special bond factors lj:    0        0        1       
  special bond factors coul:  0        0        1       
     4 = max # of 1-2 neighbors
     8 = max # of 1-3 neighbors
    12 = max # of special neighbors
  special bonds CPU = 0.000 seconds
  read_data CPU = 0.003 seconds
include 	 	../non_bonded_sod-4c_Zn-2c_mim_lj.param
### Parameters for Equilibration ###

### Parameters for MOF ###

mass 1 65.380000000
mass 2 14.006700000
mass 3 12.010700000
mass 4 1.007940000
mass 5 12.010700000


bond_coeff 1 165.837318 1.881712
bond_coeff 2 663.718927 1.345073
bond_coeff 3 369.943935 1.486000
bond_coeff 4 462.655054 1.379256
bond_coeff 5 357.440381 1.081418
bond_coeff 6 331.069389 1.109401

angle_coeff 1 fourier 197.524216 0.343737 0.374972 0.281246
angle_coeff 2 cosine/periodic 45.889625 -1 3
angle_coeff 3 cosine/periodic 120.000516 -1 3
angle_coeff 4 cosine/periodic 212.442573 -1 3
angle_coeff 5 cosine/periodic 136.548728 -1 3
angle_coeff 6 cosine/periodic 153.699352 -1 3
angle_coeff 7 cosine/periodic 79.786967 -1 3
angle_coeff 8 cosine/periodic 57.289016 -1 3
angle_coeff 9 fourier 121.777217 0.343737 0.374972 0.281246
angle_coeff 10 fourier 75.498766 0.343737 0.374972 0.281246

dihedral_coeff 1 3.368555 -1 2
dihedral_coeff 2 0.166667 1 3

improper_coeff 1 2.000000 1.000000 -1.000000 0.000000 0

pair_coeff 1 1 0.124 2.46155 1 12.5
pair_coeff 1 2 0.0924986 2.86112 1 12.5
pair_coeff 1 3 0.114105 2.9462 1 12.5
pair_coeff 1 4 0.0738647 2.51634 1 12.5
pair_coeff 1 5 0.114105 2.9462 1 12.5
pair_coeff 2 2 0.069 3.26069 1 12.5
pair_coeff 2 3 0.0851176 3.34577 1 12.5
pair_coeff 2 4 0.0550999 2.91591 1 12.5
pair_coeff 2 5 0.0851176 3.34577 1 12.5
pair_coeff 3 3 0.105 3.43085 1 12.5
pair_coeff 3 4 0.0679706 3.00099 1 12.5
pair_coeff 3 5 0.105 3.43085 1 12.5
pair_coeff 4 4 0.044 2.57113 1 12.5
pair_coeff 4 5 0.0679706 3.00099 1 12.5
pair_coeff 5 5 0.105 3.43085 1 12.5

group			fram type < 6
276 atoms in group fram

fix				SPRING fram spring/self 10 	# harmonic restraint to framework


#------------------------------------------------------------------------------#
# equilibration
#------------------------------------------------------------------------------#

reset_timestep	0

variable 		delta equal ${lambda}
variable 		delta equal 0
fix 			ADAPT all adapt 0 pair lj/cut/soft lambda * * v_delta

thermo_style	custom step etotal ke pe temp press density vol evdwl etail ecoul elong epair
thermo 			5000
velocity 		all create ${T} ${seed}
velocity 		all create 300 ${seed}
velocity 		all create 300 20902

fix				f1 all nve
fix 			f2 all langevin ${T} ${T} ${damp_T} ${seed} zero yes
fix 			f2 all langevin 300 ${T} ${damp_T} ${seed} zero yes
fix 			f2 all langevin 300 300 ${damp_T} ${seed} zero yes
fix 			f2 all langevin 300 300 100 ${seed} zero yes
fix 			f2 all langevin 300 300 100 20902 zero yes
compute 		c1 all temp/com
fix_modify		f2 temp c1

run				500000
Generated 0 of 10 mixed pair_coeff terms from arithmetic mixing rule
Neighbor list info ...
  update every 1 steps, delay 10 steps, check yes
  max neighbors/atom: 2000, page size: 100000
  master list distance cutoff = 14.5
  ghost atom cutoff = 14.5
  binsize = 7.25, bins = 3 3 3
  1 neighbor lists, perpetual/occasional/extra = 1 0 0
  (1) pair lj/cut/soft, perpetual
      attributes: half, newton on
      pair build: half/bin/newton/tri
      stencil: half/bin/3d/tri
      bin: standard
WARNING: Inconsistent image flags (../domain.cpp:819)
Per MPI rank memory allocation (min/avg/max) = 13.55 | 13.56 | 13.56 Mbytes
   Step         TotEng         KinEng         PotEng          Temp          Press         Density         Volume         E_vdwl         E_tail         E_coul         E_long         E_pair    
         0   1339.25        245.91683      1093.3332      300            4981.2392      1.0177122      4455.7805      0              0              0              0              0            
      5000   1500.9438      251.07509      1249.8687      306.29269      259.21443      1.0177122      4455.7805      0              0              0              0              0            
     10000   1525.9554      251.82233      1274.1331      307.20427     -4188.6671      1.0177122      4455.7805      0              0              0              0              0            
     15000   1512.6592      227.41403      1285.2452      277.42798      3251.7472      1.0177122      4455.7805      0              0              0              0              0            
     20000   1507.9476      231.93774      1276.0099      282.94657      1141.3113      1.0177122      4455.7805      0              0              0              0              0            
     25000   1548.4906      257.47205      1291.0186      314.0965       1639.3186      1.0177122      4455.7805      0              0              0              0              0            
     30000   1544.4476      267.4216       1277.026       326.2342      -833.85825      1.0177122      4455.7805      0              0              0              0              0            
     35000   1524.9388      244.64024      1280.2985      298.44266      1035.616       1.0177122      4455.7805      0              0              0              0              0            
     40000   1553.4347      263.56245      1289.8722      321.52632      1327.2012      1.0177122      4455.7805      0              0              0              0              0            
     45000   1527.0064      259.5439       1267.4625      316.624       -788.38098      1.0177122      4455.7805      0              0              0              0              0            
     50000   1530.8796      246.03428      1284.8453      300.14329     -844.43649      1.0177122      4455.7805      0              0              0              0              0            
     55000   1513.8982      244.64847      1269.2497      298.4527      -2063.1452      1.0177122      4455.7805      0              0              0              0              0            
     60000   1551.3536      262.17152      1289.1821      319.82949     -1439.5475      1.0177122      4455.7805      0              0              0              0              0            
     65000   1536.9324      259.62229      1277.3101      316.71963     -1478.3386      1.0177122      4455.7805      0              0              0              0              0            
     70000   1525.666       245.02076      1280.6453      298.90687     -3288.7239      1.0177122      4455.7805      0              0              0              0              0            
     75000   1524.8408      250.64409      1274.1967      305.7669      -2691.4617      1.0177122      4455.7805      0              0              0              0              0            
     80000   1551.6628      268.94725      1282.7156      328.09538      2521.5988      1.0177122      4455.7805      0              0              0              0              0            
     85000   1541.6896      264.36676      1277.3228      322.50752     -728.943        1.0177122      4455.7805      0              0              0              0              0            
     90000   1524.5811      240.03375      1284.5473      292.82309     -2243.495       1.0177122      4455.7805      0              0              0              0              0            
     95000   1543.3084      255.25061      1288.0578      311.38651      1098.075       1.0177122      4455.7805      0              0              0              0              0            
    100000   1523.5253      253.66462      1269.8607      309.45172     -3023.7562      1.0177122      4455.7805      0              0              0              0              0            
    105000   1508.8335      236.36197      1272.4715      288.34379      1106.2514      1.0177122      4455.7805      0              0              0              0              0            
    110000   1520.7941      235.11394      1285.6802      286.82129     -4312.9788      1.0177122      4455.7805      0              0              0              0              0            
    115000   1514.1034      237.70972      1276.3936      289.98795     -2718.4166      1.0177122      4455.7805      0              0              0              0              0            
    120000   1542.4896      260.21701      1282.2726      317.44515     -1804.0732      1.0177122      4455.7805      0              0              0              0              0            
    125000   1543.0559      247.22001      1295.8359      301.58978      3898.9441      1.0177122      4455.7805      0              0              0              0              0            
    130000   1503.3462      250.85482      1252.4913      306.02398      2966.5576      1.0177122      4455.7805      0              0              0              0              0            
    135000   1534.9315      233.14784      1301.7836      284.42279     -5438.3615      1.0177122      4455.7805      0              0              0              0              0            
    140000   1529.3733      244.88537      1284.4879      298.74169     -1507.033       1.0177122      4455.7805      0              0              0              0              0            
    145000   1536.0259      246.36527      1289.6607      300.54706     -836.54618      1.0177122      4455.7805      0              0              0              0              0            
    150000   1530.5816      252.77942      1277.8021      308.37185     -3614.1958      1.0177122      4455.7805      0              0              0              0              0            
    155000   1530.9134      231.32061      1299.5928      282.19371     -3909.4726      1.0177122      4455.7805      0              0              0              0              0            
    160000   1560.0953      268.24018      1291.8552      327.2328      -1983.6432      1.0177122      4455.7805      0              0              0              0              0            
    165000   1504.1127      238.37413      1265.7385      290.79848     -3778.3481      1.0177122      4455.7805      0              0              0              0              0            
    170000   1535.3154      242.33147      1292.9839      295.62614     -2976.7756      1.0177122      4455.7805      0              0              0              0              0            
    175000   1543.4884      265.00225      1278.4861      323.28277     -629.21269      1.0177122      4455.7805      0              0              0              0              0            
    180000   1534.0535      252.81116      1281.2423      308.41057     -1485.1288      1.0177122      4455.7805      0              0              0              0              0            
    185000   1557.5993      272.09085      1285.5085      331.93033     -2151.64        1.0177122      4455.7805      0              0              0              0              0            
    190000   1541.1749      250.55731      1290.6176      305.66104     -4654.0344      1.0177122      4455.7805      0              0              0              0              0            
    195000   1558.475       243.85438      1314.6206      297.48397     -342.58488      1.0177122      4455.7805      0              0              0              0              0            
    200000   1540.4443      257.42224      1283.022       314.03573     -6031.9452      1.0177122      4455.7805      0              0              0              0              0            
    205000   1528.9492      244.09541      1284.8538      297.778       -1223.6447      1.0177122      4455.7805      0              0              0              0              0            
    210000   1506.5452      240.20204      1266.3431      293.02839     -1734.8139      1.0177122      4455.7805      0              0              0              0              0            
    215000   1522.3942      238.79694      1283.5972      291.31427      1258.7254      1.0177122      4455.7805      0              0              0              0              0            
    220000   1529.155       250.58454      1278.5705      305.69426      1055.0759      1.0177122      4455.7805      0              0              0              0              0            
    225000   1545.5883      260.17861      1285.4096      317.3983       2113.6283      1.0177122      4455.7805      0              0              0              0              0            
    230000   1511.7687      235.49841      1276.2703      287.29032     -1911.2037      1.0177122      4455.7805      0              0              0              0              0            
    235000   1494.2235      229.42648      1264.797       279.88301     -1762.0575      1.0177122      4455.7805      0              0              0              0              0            
    240000   1521.0624      252.70491      1268.3574      308.28095     -830.08535      1.0177122      4455.7805      0              0              0              0              0            
    245000   1536.3443      247.82484      1288.5194      302.32763     -526.59339      1.0177122      4455.7805      0              0              0              0              0            
    250000   1545.929       262.02798      1283.901       319.65439     -1001.8035      1.0177122      4455.7805      0              0              0              0              0            
    255000   1542.5429      261.50345      1281.0394      319.0145      -570.15733      1.0177122      4455.7805      0              0              0              0              0            
    260000   1525.9445      251.58371      1274.3608      306.91317     -655.41957      1.0177122      4455.7805      0              0              0              0              0            
    265000   1520.9265      258.30035      1262.6261      315.10696     -931.95552      1.0177122      4455.7805      0              0              0              0              0            
    270000   1569.4653      261.49122      1307.9741      318.99959     -2275.7192      1.0177122      4455.7805      0              0              0              0              0            
    275000   1518.7206      254.44508      1264.2755      310.40382     -3971.9556      1.0177122      4455.7805      0              0              0              0              0            
    280000   1472.5961      224.52612      1248.07        273.90494     -3642.4354      1.0177122      4455.7805      0              0              0              0              0            
    285000   1523.5196      244.88439      1278.6352      298.7405      -1190.1323      1.0177122      4455.7805      0              0              0              0              0            
    290000   1525.5642      251.41456      1274.1497      306.70682     -630.25214      1.0177122      4455.7805      0              0              0              0              0            
    295000   1505.0618      251.84734      1253.2145      307.23477     -1464.0952      1.0177122      4455.7805      0              0              0              0              0            
    300000   1543.9467      259.14578      1284.8009      316.13832     -1738.1338      1.0177122      4455.7805      0              0              0              0              0            
    305000   1562.8057      246.62389      1316.1818      300.86256     -2931.6161      1.0177122      4455.7805      0              0              0              0              0            
    310000   1541.5577      247.97132      1293.5864      302.50632     -1317.1451      1.0177122      4455.7805      0              0              0              0              0            
    315000   1538.8732      243.91504      1294.9582      297.55796     -3152.4133      1.0177122      4455.7805      0              0              0              0              0            
    320000   1529.3767      251.4973       1277.8794      306.80776      614.17081      1.0177122      4455.7805      0              0              0              0              0            
    325000   1528.0161      253.502        1274.5141      309.25333      3020.7632      1.0177122      4455.7805      0              0              0              0              0            
    330000   1535.0329      258.53317      1276.4998      315.39098      95.227335      1.0177122      4455.7805      0              0              0              0              0            
    335000   1562.8886      269.54046      1293.3482      328.81904      1351.2678      1.0177122      4455.7805      0              0              0              0              0            
    340000   1535.1229      255.778        1279.3449      312.02988     -2338.7804      1.0177122      4455.7805      0              0              0              0              0            
    345000   1536.7382      250.98718      1285.751       306.18545      3421.369       1.0177122      4455.7805      0              0              0              0              0            
    350000   1519.0559      242.78131      1276.2746      296.1749      -4177.1904      1.0177122      4455.7805      0              0              0              0              0            
    355000   1503.8142      239.18312      1264.631       291.78539     -3975.2189      1.0177122      4455.7805      0              0              0              0              0            
    360000   1503.0696      223.79923      1279.2703      273.0182      -1098.8104      1.0177122      4455.7805      0              0              0              0              0            
    365000   1547.525       266.25835      1281.2666      324.81513      2429.1931      1.0177122      4455.7805      0              0              0              0              0            
    370000   1520.9214      227.2468       1293.6746      277.22398     -1018.0223      1.0177122      4455.7805      0              0              0              0              0            
    375000   1547.3111      278.07719      1269.2339      339.23321      3714.9048      1.0177122      4455.7805      0              0              0              0              0            
    380000   1500.4936      225.49294      1275.0007      275.08439      2829.5174      1.0177122      4455.7805      0              0              0              0              0            
    385000   1541.7322      266.96929      1274.7629      325.68241     -3331.3554      1.0177122      4455.7805      0              0              0              0              0            
    390000   1535.2588      246.03237      1289.2264      300.14096     -5919.2718      1.0177122      4455.7805      0              0              0              0              0            
    395000   1501.1112      235.13336      1265.9778      286.84498     -1326.3065      1.0177122      4455.7805      0              0              0              0              0            
    400000   1555.2035      275.34004      1279.8635      335.8941      -327.57035      1.0177122      4455.7805      0              0              0              0              0            
    405000   1531.006       244.79841      1286.2076      298.63562     -6204.7614      1.0177122      4455.7805      0              0              0              0              0            
    410000   1537.6319      249.91767      1287.7143      304.88072     -1815.0135      1.0177122      4455.7805      0              0              0              0              0            
    415000   1544.8106      240.80506      1304.0055      293.76402     -8739.8804      1.0177122      4455.7805      0              0              0              0              0            
    420000   1527.2374      249.13531      1278.1021      303.9263      -3081.9719      1.0177122      4455.7805      0              0              0              0              0            
    425000   1520.536       227.91018      1292.6259      278.03325     -1844.2553      1.0177122      4455.7805      0              0              0              0              0            
    430000   1555.5769      275.13751      1280.4394      335.64703     -1194.9152      1.0177122      4455.7805      0              0              0              0              0            
    435000   1536.9807      239.5534       1297.4273      292.2371      -3551.0161      1.0177122      4455.7805      0              0              0              0              0            
    440000   1510.0369      239.7697       1270.2672      292.50096     -175.33764      1.0177122      4455.7805      0              0              0              0              0            
    445000   1552.9822      261.69145      1291.2908      319.24385     -3904.7255      1.0177122      4455.7805      0              0              0              0              0            
    450000   1518.1505      239.97469      1278.1758      292.75104      230.6431       1.0177122      4455.7805      0              0              0              0              0            
    455000   1499.0292      240.95178      1258.0774      293.94302     -66.902538      1.0177122      4455.7805      0              0              0              0              0            
    460000   1540.1         253.00522      1287.0948      308.6473      -5200.1606      1.0177122      4455.7805      0              0              0              0              0            
    465000   1526.7692      244.28875      1282.4805      298.01387     -4256.9847      1.0177122      4455.7805      0              0              0              0              0            
    470000   1514.9361      232.94419      1281.9919      284.17436      187.4389       1.0177122      4455.7805      0              0              0              0              0            
    475000   1516.4876      231.09269      1285.3949      281.91566     -3979.8454      1.0177122      4455.7805      0              0              0              0              0            
    480000   1532.6426      267.58607      1265.0566      326.43485      838.93133      1.0177122      4455.7805      0              0              0              0              0            
    485000   1524.1131      248.5027       1275.6104      303.15457     -3082.3917      1.0177122      4455.7805      0              0              0              0              0            
    490000   1541.0119      268.65864      1272.3532      327.74329     -592.41309      1.0177122      4455.7805      0              0              0              0              0            
    495000   1560.2827      262.3696       1297.9131      320.07114     -971.47438      1.0177122      4455.7805      0              0              0              0              0            
    500000   1533.83        246.81392      1287.0161      301.09438      213.38547      1.0177122      4455.7805      0              0              0              0              0            
Loop time of 57.4161 on 4 procs for 500000 steps with 276 atoms

Performance: 752.403 ns/day, 0.032 hours/ns, 8708.366 timesteps/s
99.5% CPU use with 4 MPI tasks x no OpenMP threads

MPI task timing breakdown:
Section |  min time  |  avg time  |  max time  |%varavg| %total
---------------------------------------------------------------
Pair    | 33.153     | 36.004     | 38.781     |  42.8 | 62.71
Bond    | 2.5061     | 2.6958     | 2.8876     |   9.0 |  4.70
Neigh   | 0.25403    | 0.25415    | 0.25428    |   0.0 |  0.44
Comm    | 13.07      | 16.048     | 19.079     |  67.7 | 27.95
Output  | 0.00098204 | 0.001037   | 0.0011653  |   0.2 |  0.00
Modify  | 1.8482     | 1.8583     | 1.8711     |   0.6 |  3.24
Other   |            | 0.5556     |            |       |  0.97

Nlocal:             69 ave          74 max          63 min
Histogram: 1 0 1 0 0 0 0 0 0 2
Nghost:           3692 ave        3720 max        3659 min
Histogram: 1 0 0 1 0 0 0 0 1 1
Neighs:        27088.5 ave       29428 max       24345 min
Histogram: 1 0 0 1 0 0 0 0 1 1

Total # of neighbors = 108354
Ave neighs/atom = 392.58696
Ave special neighs/atom = 6.4347826
Neighbor list builds = 468
Dangerous builds = 0
unfix			ADAPT

#------------------------------------------------------------------------------#
# sampling
#------------------------------------------------------------------------------#

reset_timestep	0

variable		ddlambda equal 0.001
variable		ddlambda_n equal -0.001

compute 		ALL1 all fep ${T} pair lj/cut/soft lambda * * v_ddlambda
compute 		ALL1 all fep 300 pair lj/cut/soft lambda * * v_ddlambda
compute 		ALL2 all fep ${T} pair lj/cut/soft lambda * * v_ddlambda_n
compute 		ALL2 all fep 300 pair lj/cut/soft lambda * * v_ddlambda_n
variable 		dudlam equal (c_ALL1[1]-c_ALL2[1])/0.002

fix				ALL all ave/time 250 1 250 v_dudlam file LJ_${lambda}.lmp
fix				ALL all ave/time 250 1 250 v_dudlam file LJ_0.lmp

thermo_style	custom step etotal ke pe temp press density vol evdwl etail ecoul elong epair v_dudlam
thermo			250

run 			800000
Generated 0 of 10 mixed pair_coeff terms from arithmetic mixing rule
FEP settings ...
  temperature = 300.000000
  tail no
  pair lj/cut/soft lambda 1-5 1-5
FEP settings ...
  temperature = 300.000000
  tail no
  pair lj/cut/soft lambda 1-5 1-5
WARNING: Inconsistent image flags (../domain.cpp:819)
Per MPI rank memory allocation (min/avg/max) = 13.56 | 13.56 | 13.56 Mbytes
   Step         TotEng         KinEng         PotEng          Temp          Press         Density         Volume         E_vdwl         E_tail         E_coul         E_long         E_pair        v_dudlam   
         0   1533.83        246.81392      1287.0161      301.09438      213.38547      1.0177122      4455.7805      0              0              0              0              0             -231.8089     
       250   1519.2578      244.0674       1275.1904      297.74383      938.70068      1.0177122      4455.7805      0              0              0              0              0             -231.58977    
       500   1532.4663      259.4485       1273.0178      316.50762     -3769.1178      1.0177122      4455.7805      0              0              0              0              0             -231.15522    
       750   1524.4634      249.80015      1274.6633      304.73736      4273.1617      1.0177122      4455.7805      0              0              0              0              0             -233.02003    
      1000   1521.9547      241.51019      1280.4445      294.62423     -2621.5851      1.0177122      4455.7805      0              0              0              0              0             -231.67457    
      1250   1574.7125      270.99997      1303.7126      330.59954     -2684.2568      1.0177122      4455.7805      0              0              0              0              0             -232.65703    
      1500   1514.4094      241.49383      1272.9156      294.60428     -1157.165       1.0177122      4455.7805      0              0              0              0              0             -232.73007    
      1750   1541.484       269.1661       1272.3179      328.36236     -645.27021      1.0177122      4455.7805      0              0              0              0              0             -231.6468     
      2000   1538.4524      263.93492      1274.5175      321.98072      2987.7673      1.0177122      4455.7805      0              0              0              0              0             -231.88877    
      2250   1536.4283      269.43081      1266.9975      328.68528     -3287.8856      1.0177122      4455.7805      0              0              0              0              0             -232.11475    
      2500   1551.2898      263.54128      1287.7486      321.5005       315.27036      1.0177122      4455.7805      0              0              0              0              0             -231.12008    
      2750   1530.2468      246.13872      1284.1081      300.2707      -1125.0867      1.0177122      4455.7805      0              0              0              0              0             -231.23898    
      3000   1530.4573      242.57441      1287.8829      295.9225      -4295.486       1.0177122      4455.7805      0              0              0              0              0             -232.44202    
      3250   1557.4831      261.36718      1296.116       318.84826     -81.879003      1.0177122      4455.7805      0              0              0              0              0             -232.63232    
      3500   1524.8015      251.83767      1272.9638      307.22298     -964.93803      1.0177122      4455.7805      0              0              0              0              0             -231.47481    
      3750   1521.0302      247.6902       1273.34        302.16338     -2074.9978      1.0177122      4455.7805      0              0              0              0              0             -232.71189    
      4000   1562.0669      266.6192       1295.4477      325.25533     -4298.2248      1.0177122      4455.7805      0              0              0              0              0             -231.10131    
      4250   1557.4066      253.22773      1304.1788      308.91875     -191.9512       1.0177122      4455.7805      0              0              0              0              0             -231.40452    
      4500   1536.9062      253.51636      1283.3899      309.27086     -1288.2673      1.0177122      4455.7805      0              0              0              0              0             -232.49998    
      4750   1509.2536      235.10269      1274.1509      286.80756     -5763.1289      1.0177122      4455.7805      0              0              0              0              0             -231.09499    
      5000   1535.4717      259.57609      1275.8956      316.66327     -2635.5644      1.0177122      4455.7805      0              0              0              0              0             -231.7912     
      5250   1531.438       257.33171      1274.1063      313.92529      1160.987       1.0177122      4455.7805      0              0              0              0              0             -230.7631     
      5500   1529.1406      231.95075      1297.1899      282.96244     -1540.3304      1.0177122      4455.7805      0              0              0              0              0             -231.08798    
      5750   1515.0457      232.58889      1282.4568      283.74092     -4199.0142      1.0177122      4455.7805      0              0              0              0              0             -231.83       
      6000   1519.5296      239.91337      1279.6162      292.67623     -4319.687       1.0177122      4455.7805      0              0              0              0              0             -232.85447    
      6250   1560.8306      261.52003      1299.3106      319.03473     -419.3434       1.0177122      4455.7805      0              0              0              0              0             -232.19105    
      6500   1526.1128      239.65598      1286.4568      292.36224      394.79825      1.0177122      4455.7805      0              0              0              0              0             -232.57018    
      6750   1513.3581      225.46028      1287.8978      275.04455      1994.5756      1.0177122      4455.7805      0              0              0              0              0             -232.11785    
      7000   1501.7098      228.68684      1273.023       278.98071     -7215.2519      1.0177122      4455.7805      0              0              0              0              0             -230.75832    
      7250   1535.1964      263.06319      1272.1332      320.91726     -729.46364      1.0177122      4455.7805      0              0              0              0              0             -232.30635    
      7500   1497.9799      231.26484      1266.7151      282.12568     -3947.9727      1.0177122      4455.7805      0              0              0              0              0             -231.32332    
      7750   1543.3201      264.50898      1278.8111      322.68103      3036.6543      1.0177122      4455.7805      0              0              0              0              0             -232.02061    
      8000   1511.1521      235.00795      1276.1442      286.69199     -1442.2603      1.0177122      4455.7805      0              0              0              0              0             -230.73497    
      8250   1537.7939      267.28864      1270.5053      326.072       -5032.8014      1.0177122      4455.7805      0              0              0              0              0             -231.5279     
      8500   1522.2894      246.6168       1275.6726      300.85391     -3437.2607      1.0177122      4455.7805      0              0              0              0              0             -232.57475    
      8750   1551.7054      257.89809      1293.8073      314.61624     -1141.409       1.0177122      4455.7805      0              0              0              0              0             -231.10816    
      9000   1541.9034      267.22132      1274.682       325.98987     -341.07777      1.0177122      4455.7805      0              0              0              0              0             -230.99798    
      9250   1520.6999      244.4054       1276.2945      298.15617     -3456.1752      1.0177122      4455.7805      0              0              0              0              0             -232.11254    
      9500   1562.9631      263.82407      1299.139       321.84548      2715.4844      1.0177122      4455.7805      0              0              0              0              0             -233.31275    
      9750   1540.651       248.87771      1291.7733      303.61206     -59.034759      1.0177122      4455.7805      0              0              0              0              0             -232.95323    
     10000   1509.4721      238.39603      1271.0761      290.8252      -576.79446      1.0177122      4455.7805      0              0              0              0              0             -231.0265     
     10250   1558.1682      270.55869      1287.6095      330.06122     -4447.6389      1.0177122      4455.7805      0              0              0              0              0             -233.78092    
     10500   1536.8138      252.14863      1284.6652      307.60233      2285.5101      1.0177122      4455.7805      0              0              0              0              0             -232.22951    
     10750   1551.6979      263.83682      1287.8611      321.86104      2011.4925      1.0177122      4455.7805      0              0              0              0              0             -233.25643    
     11000   1514.8419      239.86629      1274.9757      292.6188      -5113.7181      1.0177122      4455.7805      0              0              0              0              0             -231.90185    
     11250   1550.7511      260.24308      1290.508       317.47695     -3293.905       1.0177122      4455.7805      0              0              0              0              0             -233.28663    
     11500   1537.9197      243.6258       1294.2939      297.20512     -1317.2586      1.0177122      4455.7805      0              0              0              0              0             -232.63       
     11750   1540.5008      259.422        1281.0788      316.4753       4399.6704      1.0177122      4455.7805      0              0              0              0              0             -231.91101    
     12000   1541.1334      249.83701      1291.2964      304.78232     -4672.339       1.0177122      4455.7805      0              0              0              0              0             -232.0985     
     12250   1509.2949      236.75092      1272.544       288.81829      6801.9352      1.0177122      4455.7805      0              0              0              0              0             -233.41257    
     12500   1528.7125      259.02355      1269.689       315.98921     -5354.5004      1.0177122      4455.7805      0              0              0              0              0             -232.11077    
     12750   1493.5844      233.82606      1259.7584      285.25017     -531.55098      1.0177122      4455.7805      0              0              0              0              0             -230.79123    
     13000   1544.2168      266.87833      1277.3385      325.57145      4484.7448      1.0177122      4455.7805      0              0              0              0              0             -232.89395    
     13250   1513.9231      237.16502      1276.7581      289.32346     -4986.9848      1.0177122      4455.7805      0              0              0              0              0             -231.46304    
     13500   1537.5066      266.57025      1270.9364      325.19561      737.08171      1.0177122      4455.7805      0              0              0              0              0             -232.09669    
     13750   1546.8369      268.21755      1278.6194      327.2052      -2693.9371      1.0177122      4455.7805      0              0              0              0              0             -232.03963    
     14000   1534.9083      250.51605      1284.3922      305.6107      -3350.9591      1.0177122      4455.7805      0              0              0              0              0             -232.87088    
     14250   1547.0059      251.64597      1295.3599      306.98912      1813.7144      1.0177122      4455.7805      0              0              0              0              0             -231.83306    
     14500   1516.2039      243.82874      1272.3751      297.45269     -5987.7993      1.0177122      4455.7805      0              0              0              0              0             -232.32851    
     14750   1548.4638      267.35983      1281.104       326.15884      1186.4956      1.0177122      4455.7805      0              0              0              0              0             -232.03486    
     15000   1542.8861      251.15474      1291.7313      306.38986      147.5087       1.0177122      4455.7805      0              0              0              0              0             -233.40296    
     15250   1544.9145      263.94651      1280.9679      321.99485      249.98515      1.0177122      4455.7805      0              0              0              0              0             -231.19671    
     15500   1538.4886      251.94096      1286.5477      307.34899      1442.1807      1.0177122      4455.7805      0              0              0              0              0             -232.35327    
     15750   1529.669       256.68919      1272.9798      313.14147     -3381.0988      1.0177122      4455.7805      0              0              0              0              0             -233.73673    
     16000   1521.62        251.08603      1270.534       306.30603     -437.9833       1.0177122      4455.7805      0              0              0              0              0             -232.2526     
     16250   1531.2181      257.19179      1274.0263      313.7546      -2587.1215      1.0177122      4455.7805      0              0              0              0              0             -231.68467    
     16500   1543.7046      251.7272       1291.9774      307.08822     -18.669209      1.0177122      4455.7805      0              0              0              0              0             -232.20247    
     16750   1500.4046      241.84759      1258.557       295.03583     -2524.5888      1.0177122      4455.7805      0              0              0              0              0             -230.8358     
     17000   1538.5053      243.52231      1294.983       297.07886     -463.22149      1.0177122      4455.7805      0              0              0              0              0             -233.79415    
     17250   1529.8831      239.62156      1290.2615      292.32024      1235.7041      1.0177122      4455.7805      0              0              0              0              0             -233.09683    
     17500   1520.1445      241.99843      1278.1461      295.21985     -1715.8459      1.0177122      4455.7805      0              0              0              0              0             -231.82152    
     17750   1534.7768      251.31611      1283.4607      306.58672     -5812.1708      1.0177122      4455.7805      0              0              0              0              0             -232.3508     
     18000   1523.2807      247.93602      1275.3447      302.46326     -4356.7656      1.0177122      4455.7805      0              0              0              0              0             -230.96156    
     18250   1542.3119      243.33168      1298.9803      296.84631     -2107.7171      1.0177122      4455.7805      0              0              0              0              0             -231.81907    
     18500   1525.3395      254.74982      1270.5897      310.77559     -2174.6724      1.0177122      4455.7805      0              0              0              0              0             -231.32958    
     18750   1521.8878      243.61061      1278.2772      297.18658      255.69959      1.0177122      4455.7805      0              0              0              0              0             -232.23752    
     19000   1496.8239      229.81391      1267.01        280.35566     -1911.9285      1.0177122      4455.7805      0              0              0              0              0             -230.63703    
     19250   1511.5575      224.47426      1287.0832      273.84168      539.88199      1.0177122      4455.7805      0              0              0              0              0             -230.4454     
     19500   1523.8643      259.11865      1264.7456      316.10523     -45.346617      1.0177122      4455.7805      0              0              0              0              0             -232.64115    
     19750   1549.3375      270.07424      1279.2632      329.47022     -2231.7112      1.0177122      4455.7805      0              0              0              0              0             -232.82549    
     20000   1522.0814      266.63481      1255.4466      325.27437     -1692.2804      1.0177122      4455.7805      0              0              0              0              0             -230.1351     
     20250   1539.5216      259.68312      1279.8385      316.79384     -772.79287      1.0177122      4455.7805      0              0              0              0              0             -233.09967    
     20500   1539.2114      258.18916      1281.0222      314.97131     -1191.0315      1.0177122      4455.7805      0              0              0              0              0             -231.09254    
     20750   1530.8154      241.01617      1289.7993      294.02157     -3507.3291      1.0177122      4455.7805      0              0              0              0              0             -230.34461    
     21000   1512.6289      246.01018      1266.6188      300.11389      1687.804       1.0177122      4455.7805      0              0              0              0              0             -231.86097    
     21250   1531.2936      251.84275      1279.4509      307.22917      5259.0868      1.0177122      4455.7805      0              0              0              0              0             -232.11652    
     21500   1514.3993      244.35443      1270.0449      298.09399     -1184.1945      1.0177122      4455.7805      0              0              0              0              0             -232.85463    
     21750   1534.2993      244.66789      1289.6314      298.47639     -3617.6699      1.0177122      4455.7805      0              0              0              0              0             -230.50867    
     22000   1526.7514      242.92789      1283.8235      296.35371     -1341.9501      1.0177122      4455.7805      0              0              0              0              0             -232.80231    
     22250   1494.7211      240.04645      1254.6746      292.83858      312.85949      1.0177122      4455.7805      0              0              0              0              0             -232.2807     
     22500   1519.1735      249.1922       1269.9814      303.9957      -4258.0986      1.0177122      4455.7805      0              0              0              0              0             -232.11671    
     22750   1519.7385      239.41785      1280.3206      292.07173      3254.2498      1.0177122      4455.7805      0              0              0              0              0             -233.04905    
     23000   1513.4368      254.66459      1258.7722      310.67161     -3437.7467      1.0177122      4455.7805      0              0              0              0              0             -230.84744    
     23250   1548.4387      262.23252      1286.2061      319.90392     -3956.2127      1.0177122      4455.7805      0              0              0              0              0             -231.65112    
     23500   1541.6318      246.24003      1295.3917      300.39428     -3620.2108      1.0177122      4455.7805      0              0              0              0              0             -229.90128    
     23750   1535.012       254.25513      1280.7568      310.1721      -3326.9022      1.0177122      4455.7805      0              0              0              0              0             -230.67061    
     24000   1555.6617      262.37726      1293.2844      320.08049      413.54392      1.0177122      4455.7805      0              0              0              0              0             -232.3949     
     24250   1558.276       280.12313      1278.1528      341.72911     -4723.7603      1.0177122      4455.7805      0              0              0              0              0             -232.84514    
     24500   1524.1604      245.75026      1278.4102      299.79679     -2278.1603      1.0177122      4455.7805      0              0              0              0              0             -232.68715    
     24750   1559.3301      263.52851      1295.8016      321.48492      640.25849      1.0177122      4455.7805      0              0              0              0              0             -233.41299    
     25000   1523.5523      243.83395      1279.7183      297.45904      1192.1854      1.0177122      4455.7805      0              0              0              0              0             -232.04654    
     25250   1505.6002      232.31693      1273.2833      283.40914     -5392.892       1.0177122      4455.7805      0              0              0              0              0             -232.76602    
     25500   1544.7923      260.30607      1284.4863      317.55378     -1286.0949      1.0177122      4455.7805      0              0              0              0              0             -231.49771    
     25750   1544.0859      249.83335      1294.2526      304.77786     -1369.344       1.0177122      4455.7805      0              0              0              0              0             -232.11114    
     26000   1545.2184      247.17207      1298.0464      301.5313      -1102.1247      1.0177122      4455.7805      0              0              0              0              0             -231.05225    
     26250   1573.4895      269.47363      1304.0159      328.73752      1818.8699      1.0177122      4455.7805      0              0              0              0              0             -232.52871    
     26500   1517.041       258.94383      1258.0971      315.89197     -165.67018      1.0177122      4455.7805      0              0              0              0              0             -231.3417     
     26750   1525.1941      238.6531       1286.541       291.1388      -1526.5703      1.0177122      4455.7805      0              0              0              0              0             -232.23877    
     27000   1527.0236      240.51404      1286.5095      293.409       -5766.3252      1.0177122      4455.7805      0              0              0              0              0             -232.11089    
     27250   1524.4332      240.6577       1283.7755      293.58426     -947.88754      1.0177122      4455.7805      0              0              0              0              0             -232.5696     
     27500   1523.0898      254.73851      1268.3513      310.76178     -1322.1751      1.0177122      4455.7805      0              0              0              0              0             -232.12886    
     27750   1547.7985      255.78776      1292.0107      312.0418      -3791.0676      1.0177122      4455.7805      0              0              0              0              0             -231.33468    
     28000   1512.3311      242.34097      1269.9902      295.63772     -1839.1709      1.0177122      4455.7805      0              0              0              0              0             -231.50085    
     28250   1524.1374      254.04186      1270.0955      309.91192      967.26476      1.0177122      4455.7805      0              0              0              0              0             -231.17076    
     28500   1517.9605      233.85117      1284.1094      285.28081     -4144.5908      1.0177122      4455.7805      0              0              0              0              0             -232.53199    
     28750   1561.5255      279.6057       1281.9198      341.09788      229.64237      1.0177122      4455.7805      0              0              0              0              0             -232.17167    
     29000   1532.648       255.43096      1277.217       311.60652     -6161.2682      1.0177122      4455.7805      0              0              0              0              0             -233.41497    
     29250   1529.9055      253.22962      1276.6758      308.92105      4660.6242      1.0177122      4455.7805      0              0              0              0              0             -232.42579    
     29500   1504.5886      242.22678      1262.3618      295.49841      2028.3533      1.0177122      4455.7805      0              0              0              0              0             -232.74705    
     29750   1519.1463      247.34295      1271.8034      301.73977     -752.74766      1.0177122      4455.7805      0              0              0              0              0             -231.01368    
     30000   1527.7232      247.85695      1279.8662      302.3668       3494.5792      1.0177122      4455.7805      0              0              0              0              0             -231.96166    
     30250   1515.7381      225.67489      1290.0633      275.30636     -1781.339       1.0177122      4455.7805      0              0              0              0              0             -231.43004    
     30500   1525.4878      256.7029       1268.7849      313.15819     -1208.6301      1.0177122      4455.7805      0              0              0              0              0             -232.05845    
     30750   1521.6183      250.26654      1271.3518      305.30632      1641.6389      1.0177122      4455.7805      0              0              0              0              0             -232.71459    
     31000   1521.3212      252.35796      1268.9632      307.8577      -1099.7739      1.0177122      4455.7805      0              0              0              0              0             -232.91528    
     31250   1516.4333      242.34469      1274.0886      295.64226     -1094.1633      1.0177122      4455.7805      0              0              0              0              0             -231.92659    
     31500   1559.4525      272.21756      1287.235       332.08491     -674.59413      1.0177122      4455.7805      0              0              0              0              0             -231.82873    
     31750   1513.1469      240.25607      1272.8908      293.0943       497.06916      1.0177122      4455.7805      0              0              0              0              0             -231.81921    
     32000   1543.0477      250.76463      1292.283       305.91396      856.94792      1.0177122      4455.7805      0              0              0              0              0             -233.01832    
     32250   1546.3287      269.31483      1277.0138      328.5438       1968.284       1.0177122      4455.7805      0              0              0              0              0             -232.05156    
     32500   1507.2422      237.21845      1270.0238      289.38863     -2180.7436      1.0177122      4455.7805      0              0              0              0              0             -232.05285    
     32750   1572.6371      251.44752      1321.1895      306.74703      2364.9687      1.0177122      4455.7805      0              0              0              0              0             -232.66548    
     33000   1565.7232      270.13504      1295.5882      329.54439     -891.6559       1.0177122      4455.7805      0              0              0              0              0             -233.34951    
     33250   1483.2196      211.58298      1271.6366      258.11529     -6385.1558      1.0177122      4455.7805      0              0              0              0              0             -231.11248    
     33500   1517.8418      232.53071      1285.3111      283.66994     -416.60283      1.0177122      4455.7805      0              0              0              0              0             -232.01468    
     33750   1540.144       261.75185      1278.3922      319.31754     -4123.3737      1.0177122      4455.7805      0              0              0              0              0             -230.95939    
     34000   1544.4106      263.08585      1281.3248      320.94491      155.2916       1.0177122      4455.7805      0              0              0              0              0             -229.83533    
     34250   1553.7029      254.19761      1299.5052      310.10193     -3042.6565      1.0177122      4455.7805      0              0              0              0              0             -230.83321    
     34500   1525.1607      229.97512      1295.1856      280.55232     -1659.9105      1.0177122      4455.7805      0              0              0              0              0             -229.81837    
     34750   1547.6155      251.58995      1296.0256      306.92078     -831.4838       1.0177122      4455.7805      0              0              0              0              0             -231.82445    
     35000   1524.8015      235.69737      1289.1042      287.53303     -5933.6384      1.0177122      4455.7805      0              0              0              0              0             -232.47888    
     35250   1529.1599      254.41919      1274.7407      310.37225     -2871.1211      1.0177122      4455.7805      0              0              0              0              0             -231.50611    
     35500   1529.7243      255.92224      1273.802       312.20585     -3856.579       1.0177122      4455.7805      0              0              0              0              0             -231.57303    
     35750   1518.8574      236.59646      1282.2609      288.62985     -599.29895      1.0177122      4455.7805      0              0              0              0              0             -232.00459    
     36000   1523.4981      249.25443      1274.2437      304.07162     -1174.9875      1.0177122      4455.7805      0              0              0              0              0             -233.84983    
     36250   1512.1852      238.80612      1273.3791      291.32547     -1700.9844      1.0177122      4455.7805      0              0              0              0              0             -230.81423    
     36500   1512.9336      253.6785       1259.2551      309.46865      700.63994      1.0177122      4455.7805      0              0              0              0              0             -232.00152    
     36750   1538.7617      265.60429      1273.1574      324.01722     -3429.2142      1.0177122      4455.7805      0              0              0              0              0             -232.4661     
     37000   1505.0521      237.64729      1267.4048      289.91178     -1690.4407      1.0177122      4455.7805      0              0              0              0              0             -231.67424    
     37250   1529.6596      263.45775      1266.2018      321.39861      520.08577      1.0177122      4455.7805      0              0              0              0              0             -231.54326    
     37500   1497.6808      221.58892      1276.0918      270.32178     -1976.5724      1.0177122      4455.7805      0              0              0              0              0             -232.20374    
     37750   1529.1843      244.28127      1284.903       298.00474     -2606.699       1.0177122      4455.7805      0              0              0              0              0             -231.06024    
     38000   1546.6419      259.4134       1287.2285      316.4648      -423.11649      1.0177122      4455.7805      0              0              0              0              0             -232.19378    
     38250   1556.5798      266.38202      1290.1977      324.96599     -2809.7011      1.0177122      4455.7805      0              0              0              0              0             -231.8706     
     38500   1491.4993      225.10062      1266.3987      274.6058       2848.1464      1.0177122      4455.7805      0              0              0              0              0             -233.10025    
     38750   1518.5418      232.3898       1286.152       283.49804      1129.8852      1.0177122      4455.7805      0              0              0              0              0             -232.32843    
     39000   1519.8204      249.76499      1270.0554      304.69447     -2889.1168      1.0177122      4455.7805      0              0              0              0              0             -232.1419     
     39250   1537.726       254.53055      1283.1954      310.50809      511.20233      1.0177122      4455.7805      0              0              0              0              0             -232.81126    
     39500   1494.3548      232.92447      1261.4303      284.1503      -5327.1428      1.0177122      4455.7805      0              0              0              0              0             -231.51496    
     39750   1528.3763      274.39789      1253.9784      334.74475     -2775.3497      1.0177122      4455.7805      0              0              0              0              0             -231.76723    
     40000   1553.8226      258.83804      1294.9846      315.7629      -1872.5236      1.0177122      4455.7805      0              0              0              0              0             -231.1357     
     40250   1546.0574      255.30349      1290.7539      311.45101      4635.7804      1.0177122      4455.7805      0              0              0              0              0             -234.24054    
     40500   1512.2298      239.56728      1272.6625      292.25402     -768.76222      1.0177122      4455.7805      0              0              0              0              0             -231.1832     
     40750   1516.4569      253.42054      1263.0364      309.15397     -3059.7612      1.0177122      4455.7805      0              0              0              0              0             -231.84427    
     41000   1545.9021      267.81303      1278.0891      326.71172      1249.3131      1.0177122      4455.7805      0              0              0              0              0             -232.52926    
     41250   1552.596       251.67618      1300.9198      307.02598     -934.40111      1.0177122      4455.7805      0              0              0              0              0             -232.17427    
     41500   1550.4673      252.351        1298.1163      307.84921      1164.1684      1.0177122      4455.7805      0              0              0              0              0             -232.64154    
     41750   1535.9408      258.99141      1276.9494      315.95001      646.28268      1.0177122      4455.7805      0              0              0              0              0             -231.83426    
     42000   1539.69        260.81243      1278.8776      318.17151     -2420.4391      1.0177122      4455.7805      0              0              0              0              0             -232.62372    
     42250   1530.6666      240.90955      1289.7571      293.8915      -695.56215      1.0177122      4455.7805      0              0              0              0              0             -233.60129    
     42500   1524.7975      238.40285      1286.3946      290.83351     -2527.8712      1.0177122      4455.7805      0              0              0              0              0             -232.30541    
     42750   1517           230.5081       1286.4919      281.20251     -2722.93        1.0177122      4455.7805      0              0              0              0              0             -232.10751    
     43000   1554.4472      264.29321      1290.154       322.4178      -4283.2641      1.0177122      4455.7805      0              0              0              0              0             -231.8708     
     43250   1551.0043      248.54914      1302.4551      303.21123     -8759.0672      1.0177122      4455.7805      0              0              0              0              0             -229.72864    
     43500   1536.844       250.15589      1286.6881      305.17133     -1333.286       1.0177122      4455.7805      0              0              0              0              0             -231.41115    
     43750   1548.6384      250.90438      1297.734       306.08443     -1056.3766      1.0177122      4455.7805      0              0              0              0              0             -232.94887    
     44000   1519.6163      219.72186      1299.8945      268.04411     -4468.688       1.0177122      4455.7805      0              0              0              0              0             -231.75733    
     44250   1563.0829      264.26281      1298.8201      322.38072     -4292.1652      1.0177122      4455.7805      0              0              0              0              0             -232.77297    
     44500   1504.803       226.08891      1278.7141      275.81143      1047.6576      1.0177122      4455.7805      0              0              0              0              0             -230.83248    
     44750   1530.2138      242.46716      1287.7466      295.79166     -146.87238      1.0177122      4455.7805      0              0              0              0              0             -233.63594    
     45000   1538.1113      245.7141       1292.3972      299.75269     -7157.0534      1.0177122      4455.7805      0              0              0              0              0             -231.38555    
     45250   1500.2093      235.75617      1264.4531      287.60476     -1833.3892      1.0177122      4455.7805      0              0              0              0              0             -231.03897    
     45500   1505.4335      247.25262      1258.1809      301.62956     -3700.6642      1.0177122      4455.7805      0              0              0              0              0             -232.56853    
     45750   1523.8162      250.78762      1273.0285      305.942        1412.7921      1.0177122      4455.7805      0              0              0              0              0             -232.10123    
     46000   1539.3596      247.30206      1292.0575      301.68987     -35.922397      1.0177122      4455.7805      0              0              0              0              0             -233.28824    
     46250   1536.5798      256.17422      1280.4055      312.51325     -1263.9015      1.0177122      4455.7805      0              0              0              0              0             -232.10945    
     46500   1539.34        260.85342      1278.4866      318.22151     -4626.2701      1.0177122      4455.7805      0              0              0              0              0             -231.57827    
     46750   1541.9078      252.79108      1289.1167      308.38607     -3147.252       1.0177122      4455.7805      0              0              0              0              0             -234.43643    
     47000   1522.2025      246.56774      1275.6347      300.79406     -1537.6264      1.0177122      4455.7805      0              0              0              0              0             -232.61023    
     47250   1520.637       251.00375      1269.6333      306.20566      1833.4773      1.0177122      4455.7805      0              0              0              0              0             -233.00248    
     47500   1533.5907      247.27863      1286.3121      301.66129     -3012.4547      1.0177122      4455.7805      0              0              0              0              0             -232.08165    
     47750   1550.578       248.44436      1302.1337      303.08339      1811.2591      1.0177122      4455.7805      0              0              0              0              0             -231.42628    
     48000   1545.9272      259.78723      1286.14        316.92085     -4064.5861      1.0177122      4455.7805      0              0              0              0              0             -230.64366    
     48250   1533.2599      255.5813       1277.6786      311.78993     -2108.8947      1.0177122      4455.7805      0              0              0              0              0             -232.11099    
     48500   1516.1141      250.54792      1265.5662      305.64958     -2505.1235      1.0177122      4455.7805      0              0              0              0              0             -232.30355    
     48750   1542.4854      256.08922      1286.3961      312.40955     -1108.7699      1.0177122      4455.7805      0              0              0              0              0             -232.91852    
     49000   1528.8778      237.332        1291.5458      289.52716     -4841.0313      1.0177122      4455.7805      0              0              0              0              0             -232.30784    
     49250   1546.2845      228.99942      1317.2851      279.36204      76.695794      1.0177122      4455.7805      0              0              0              0              0             -232.71904    
     49500   1563.2169      263.75987      1299.457       321.76717     -6824.4223      1.0177122      4455.7805      0              0              0              0              0             -232.18489    
     49750   1526.2898      250.84727      1275.4426      306.01477     -983.43906      1.0177122      4455.7805      0              0              0              0              0             -232.67389    
     50000   1517.3822      246.21246      1271.1697      300.36065     -1143.8464      1.0177122      4455.7805      0              0              0              0              0             -231.2212     
     50250   1517.2776      240.23565      1277.042       293.06939     -2795.2277      1.0177122      4455.7805      0              0              0              0              0             -232.26884    
     50500   1538.0157      254.21773      1283.798       310.12647     -1227.7752      1.0177122      4455.7805      0              0              0              0              0             -231.85769    
     50750   1533.7132      229.41856      1304.2946      279.87336     -5427.0546      1.0177122      4455.7805      0              0              0              0              0             -234.06422    
     51000   1566.4002      288.95811      1277.4421      352.50712     -141.57161      1.0177122      4455.7805      0              0              0              0              0             -232.69316    
     51250   1522.2185      244.77232      1277.4462      298.60378      157.09449      1.0177122      4455.7805      0              0              0              0              0             -231.97845    
     51500   1517.5748      249.35607      1268.2188      304.19562     -3714.9084      1.0177122      4455.7805      0              0              0              0              0             -232.0327     
     51750   1522.2588      232.74532      1289.5134      283.93175      3183.1846      1.0177122      4455.7805      0              0              0              0              0             -231.87476    
     52000   1523.0923      246.21082      1276.8815      300.35864     -1712.6321      1.0177122      4455.7805      0              0              0              0              0             -231.46248    
     52250   1506.0245      240.77781      1265.2467      293.73079     -2008.8066      1.0177122      4455.7805      0              0              0              0              0             -230.93109    
     52500   1520.1762      249.22226      1270.9539      304.03238     -2315.3365      1.0177122      4455.7805      0              0              0              0              0             -232.52008    
     52750   1502.1571      240.02225      1262.1348      292.80906     -415.07358      1.0177122      4455.7805      0              0              0              0              0             -230.65499    
     53000   1514.6216      232.55285      1282.0687      283.69696      344.33434      1.0177122      4455.7805      0              0              0              0              0             -233.38788    
     53250   1522.4374      265.69515      1256.7422      324.12807      474.38174      1.0177122      4455.7805      0              0              0              0              0             -231.41166    
     53500   1531.3443      244.24015      1287.1041      297.95458      1011.8449      1.0177122      4455.7805      0              0              0              0              0             -233.2934     
     53750   1522.4538      232.33544      1290.1183      283.43173     -2785.8558      1.0177122      4455.7805      0              0              0              0              0             -233.52223    
     54000   1527.8441      235.84254      1292.0016      287.71012     -5743.6106      1.0177122      4455.7805      0              0              0              0              0             -232.37453    
     54250   1524.3345      233.71015      1290.6244      285.10877      462.07801      1.0177122      4455.7805      0              0              0              0              0             -232.47962    
     54500   1528.7277      267.16021      1261.5675      325.91533     -371.07643      1.0177122      4455.7805      0              0              0              0              0             -232.52119    
     54750   1552.285       266.40055      1285.8844      324.98859      531.93336      1.0177122      4455.7805      0              0              0              0              0             -230.38736    
     55000   1503.6579      228.36359      1275.2943      278.58637     -4283.6828      1.0177122      4455.7805      0              0              0              0              0             -231.77814    
     55250   1559.0213      267.14752      1291.8738      325.89984     -5893.0574      1.0177122      4455.7805      0              0              0              0              0             -231.36343    
     55500   1544.5815      264.45248      1280.129       322.61209     -3262.1233      1.0177122      4455.7805      0              0              0              0              0             -231.37751    
     55750   1527.7207      249.57857      1278.1421      304.46705     -4990.1394      1.0177122      4455.7805      0              0              0              0              0             -231.30197    
     56000   1541.8014      256.15591      1285.6455      312.4909      -3090.9266      1.0177122      4455.7805      0              0              0              0              0             -231.28592    
     56250   1507.565       231.25855      1276.3064      282.11801     -535.92544      1.0177122      4455.7805      0              0              0              0              0             -232.01996    
     56500   1512.7107      239.75603      1272.9547      292.48429     -2624.7734      1.0177122      4455.7805      0              0              0              0              0             -231.36672    
     56750   1547.4604      263.2282       1284.2322      321.11857      1608.5838      1.0177122      4455.7805      0              0              0              0              0             -233.81754    
     57000   1541.3102      250.16226      1291.148       305.1791      -6467.987       1.0177122      4455.7805      0              0              0              0              0             -232.45043    
     57250   1552.5091      265.69093      1286.8182      324.12291      372.25367      1.0177122      4455.7805      0              0              0              0              0             -232.1257     
     57500   1510.3015      230.77746      1279.524       281.53111     -4211.6617      1.0177122      4455.7805      0              0              0              0              0             -231.06587    
     57750   1523.7847      249.55215      1274.2326      304.43481     -1030.6159      1.0177122      4455.7805      0              0              0              0              0             -231.44735    
     58000   1502.8021      229.20177      1273.6003      279.60888     -540.98146      1.0177122      4455.7805      0              0              0              0              0             -232.76829    
     58250   1558.0895      266.12079      1291.9687      324.64731     -5237.9114      1.0177122      4455.7805      0              0              0              0              0             -232.25836    
     58500   1563.4268      267.67451      1295.7523      326.54273     -3381.2975      1.0177122      4455.7805      0              0              0              0              0             -232.91636    
     58750   1529.0604      249.24429      1279.8161      304.05925      343.51842      1.0177122      4455.7805      0              0              0              0              0             -232.10452    
     59000   1528.7651      264.43193      1264.3331      322.58702      1003.198       1.0177122      4455.7805      0              0              0              0              0             -231.8142     
     59250   1524.4612      246.14021      1278.321       300.27251     -3275.8625      1.0177122      4455.7805      0              0              0              0              0             -231.42555    
     59500   1533.2247      258.53071      1274.694       315.38799     -1168.5666      1.0177122      4455.7805      0              0              0              0              0             -232.66814    
     59750   1550.2537      269.60786      1280.6458      328.90127     -344.35039      1.0177122      4455.7805      0              0              0              0              0             -232.82577    
     60000   1511.7848      233.50729      1278.2775      284.8613      -1000.025       1.0177122      4455.7805      0              0              0              0              0             -231.11499    
     60250   1513.6617      234.98946      1278.6723      286.66944     -5876.6013      1.0177122      4455.7805      0              0              0              0              0             -232.52428    
     60500   1521.8345      245.59983      1276.2347      299.61328     -2072.3163      1.0177122      4455.7805      0              0              0              0              0             -230.9002     
     60750   1524.9203      243.63733      1281.283       297.21918      287.18493      1.0177122      4455.7805      0              0              0              0              0             -231.85659    
     61000   1536.5073      250.63205      1285.8752      305.75221     -3013.9695      1.0177122      4455.7805      0              0              0              0              0             -233.658      
     61250   1545.2841      269.64958      1275.6345      328.95216     -578.1687       1.0177122      4455.7805      0              0              0              0              0             -230.14606    
     61500   1544.3256      253.72259      1290.603       309.52244      549.54818      1.0177122      4455.7805      0              0              0              0              0             -231.92424    
     61750   1556.4803      267.85938      1288.6209      326.76826     -3456.1432      1.0177122      4455.7805      0              0              0              0              0             -232.11851    
     62000   1557.2414      259.26956      1297.9719      316.28933     -880.27414      1.0177122      4455.7805      0              0              0              0              0             -231.93135    
     62250   1553.3867      267.38735      1285.9993      326.19242     -3557.0049      1.0177122      4455.7805      0              0              0              0              0             -231.02292    
     62500   1536.8318      253.85457      1282.9772      309.68345     -1996.9639      1.0177122      4455.7805      0              0              0              0              0             -231.52935    
     62750   1526.6796      249.40349      1277.2762      304.25346     -1609.4732      1.0177122      4455.7805      0              0              0              0              0             -233.52884    
     63000   1503.3079      236.59905      1266.7088      288.63301      2486.1014      1.0177122      4455.7805      0              0              0              0              0             -232.76251    
     63250   1500.3613      220.37414      1279.9872      268.83984     -1046.0385      1.0177122      4455.7805      0              0              0              0              0             -231.28108    
[...]
    777750   1523.0697      247.43891      1275.6308      301.85682     -277.77166      1.0177122      4455.7805      0              0              0              0              0             -231.41416    
    778000   1544.3522      255.57474      1288.7775      311.78192      2367.2098      1.0177122      4455.7805      0              0              0              0              0             -230.83335    
    778250   1513.4886      231.80479      1281.6839      282.78438     -1218.0994      1.0177122      4455.7805      0              0              0              0              0             -233.21356    
    778500   1548.5199      255.55995      1292.96        311.76388     -4757.7146      1.0177122      4455.7805      0              0              0              0              0             -231.36133    
    778750   1552.241       257.99766      1294.2433      314.73771      352.065        1.0177122      4455.7805      0              0              0              0              0             -232.58491    
    779000   1503.6234      238.2634       1265.36        290.6634       1289.6042      1.0177122      4455.7805      0              0              0              0              0             -232.37546    
    779250   1549.2865      246.52726      1302.7593      300.74468     -1420.9485      1.0177122      4455.7805      0              0              0              0              0             -230.87926    
    779500   1553.2218      275.09113      1278.1307      335.59045      1592.5656      1.0177122      4455.7805      0              0              0              0              0             -232.83622    
    779750   1547.6014      258.55203      1289.0493      315.41399     -2684.8236      1.0177122      4455.7805      0              0              0              0              0             -231.63058    
    780000   1538.582       255.42123      1283.1607      311.59465      2726.349       1.0177122      4455.7805      0              0              0              0              0             -232.82327    
    780250   1527.9494      257.72082      1270.2286      314.39998      227.67575      1.0177122      4455.7805      0              0              0              0              0             -232.59582    
    780500   1536.5873      251.31136      1285.2759      306.58092     -2871.7198      1.0177122      4455.7805      0              0              0              0              0             -231.29149    
    780750   1522.2392      245.65334      1276.5859      299.67856      3459.3638      1.0177122      4455.7805      0              0              0              0              0             -232.97979    
    781000   1509.1981      233.4127       1275.7853      284.74591     -5260.3266      1.0177122      4455.7805      0              0              0              0              0             -230.5883     
    781250   1521.032       236.85049      1284.1815      288.93975      2331.4289      1.0177122      4455.7805      0              0              0              0              0             -231.20879    
    781500   1554.5198      242.98044      1311.5393      296.41783     -5233.0744      1.0177122      4455.7805      0              0              0              0              0             -231.53003    
    781750   1531.6098      248.13702      1283.4728      302.70847     -2203.6199      1.0177122      4455.7805      0              0              0              0              0             -231.39264    
    782000   1528.7843      252.66415      1276.1201      308.23123     -7286.5048      1.0177122      4455.7805      0              0              0              0              0             -230.99585    
    782250   1538.8437      266.87364      1271.97        325.56573     -3058.9701      1.0177122      4455.7805      0              0              0              0              0             -233.15959    
    782500   1542.5556      251.51534      1291.0402      306.82977     -6411.4397      1.0177122      4455.7805      0              0              0              0              0             -231.03948    
    782750   1536.9735      248.43383      1288.5397      303.07055     -892.65532      1.0177122      4455.7805      0              0              0              0              0             -232.05036    
    783000   1531.6096      240.07848      1291.5311      292.87765     -462.06775      1.0177122      4455.7805      0              0              0              0              0             -232.57918    
    783250   1534.1774      245.49129      1288.6861      299.48088     -1510.0525      1.0177122      4455.7805      0              0              0              0              0             -231.93243    
    783500   1532.3207      267.23636      1265.0843      326.00822     -5288.0187      1.0177122      4455.7805      0              0              0              0              0             -231.18777    
    783750   1529.1791      262.55242      1266.6266      320.29417      6377.4751      1.0177122      4455.7805      0              0              0              0              0             -232.41289    
    784000   1544.1001      266.06612      1278.034       324.58062     -4098.945       1.0177122      4455.7805      0              0              0              0              0             -231.79943    
    784250   1549.5611      254.42907      1295.132       310.38429      401.75531      1.0177122      4455.7805      0              0              0              0              0             -233.0604     
    784500   1518.9959      240.36673      1278.6292      293.22929     -4221.928       1.0177122      4455.7805      0              0              0              0              0             -230.47581    
    784750   1539.3177      261.38635      1277.9313      318.87165     -4201.4721      1.0177122      4455.7805      0              0              0              0              0             -231.18853    
    785000   1543.0361      242.50514      1300.5309      295.838       -1559.4602      1.0177122      4455.7805      0              0              0              0              0             -232.17026    
    785250   1541.9204      255.58792      1286.3325      311.798       -1541.9677      1.0177122      4455.7805      0              0              0              0              0             -233.19416    
    785500   1528.9549      260.30774      1268.6472      317.55583      2241.1717      1.0177122      4455.7805      0              0              0              0              0             -231.8969     
    785750   1561.77        261.34936      1300.4207      318.82653     -656.09411      1.0177122      4455.7805      0              0              0              0              0             -233.41943    
    786000   1531.5284      256.05371      1275.4747      312.36623      1062.425       1.0177122      4455.7805      0              0              0              0              0             -232.77128    
    786250   1569.3892      266.37358      1303.0157      324.95569     -620.95575      1.0177122      4455.7805      0              0              0              0              0             -232.26729    
    786500   1541.0627      246.1639       1294.8988      300.3014      -2002.972       1.0177122      4455.7805      0              0              0              0              0             -232.4958     
    786750   1538.1126      261.9603       1276.1523      319.57183      4108.9107      1.0177122      4455.7805      0              0              0              0              0             -231.98208    
    787000   1549.2418      259.26036      1289.9815      316.2781      -1837.9856      1.0177122      4455.7805      0              0              0              0              0             -231.40841    
    787250   1527.2949      265.35656      1261.9383      323.71501      141.09519      1.0177122      4455.7805      0              0              0              0              0             -229.31602    
    787500   1536.6797      268.23336      1268.4463      327.22448     -508.3315       1.0177122      4455.7805      0              0              0              0              0             -231.87573    
    787750   1515.7258      231.99673      1283.7291      283.01853     -1318.7486      1.0177122      4455.7805      0              0              0              0              0             -232.69771    
    788000   1525.1407      254.16634      1270.9744      310.06379     -1474.9885      1.0177122      4455.7805      0              0              0              0              0             -232.20855    
    788250   1543.1511      250.69697      1292.4542      305.83142      3283.1642      1.0177122      4455.7805      0              0              0              0              0             -232.51447    
    788500   1541.8853      246.83397      1295.0514      301.11884     -1816.465       1.0177122      4455.7805      0              0              0              0              0             -231.16991    
    788750   1510.4319      247.22944      1263.2024      301.60129     -2257.9322      1.0177122      4455.7805      0              0              0              0              0             -231.54122    
    789000   1506.0639      241.1749       1264.889       294.21521     -1533.8         1.0177122      4455.7805      0              0              0              0              0             -231.56154    
    789250   1530.4401      230.48803      1299.952       281.17802      1052.5206      1.0177122      4455.7805      0              0              0              0              0             -231.62461    
    789500   1527.0139      252.94811      1274.0658      308.57763     -1919.8945      1.0177122      4455.7805      0              0              0              0              0             -231.63918    
    789750   1503.2361      211.99697      1291.2391      258.62033     -1657.6872      1.0177122      4455.7805      0              0              0              0              0             -232.94629    
    790000   1517.4179      255.45478      1261.9632      311.63558      1842.6555      1.0177122      4455.7805      0              0              0              0              0             -233.40605    
    790250   1507.2097      243.6857       1263.524       297.27819     -3312.7236      1.0177122      4455.7805      0              0              0              0              0             -232.89324    
    790500   1547.6084      262.21076      1285.3977      319.87737      1519.994       1.0177122      4455.7805      0              0              0              0              0             -232.31189    
    790750   1535.1742      252.76408      1282.4101      308.35313      841.59103      1.0177122      4455.7805      0              0              0              0              0             -232.46171    
    791000   1537.8739      258.20715      1279.6668      314.99327      5880.3877      1.0177122      4455.7805      0              0              0              0              0             -231.6921     
    791250   1554.4338      251.15848      1303.2754      306.39442     -3792.87        1.0177122      4455.7805      0              0              0              0              0             -231.86636    
    791500   1542.0544      250.84268      1291.2117      306.00917     -3503.4211      1.0177122      4455.7805      0              0              0              0              0             -231.34174    
    791750   1511.4763      223.192        1288.2843      272.27743     -2077.6534      1.0177122      4455.7805      0              0              0              0              0             -231.64954    
    792000   1531.3031      262.00719      1269.2959      319.62903      1691.2184      1.0177122      4455.7805      0              0              0              0              0             -230.773      
    792250   1530.2109      256.18679      1274.0242      312.52858     -789.61037      1.0177122      4455.7805      0              0              0              0              0             -231.03775    
    792500   1527.0312      258.77975      1268.2514      315.69179     -467.27103      1.0177122      4455.7805      0              0              0              0              0             -231.22636    
    792750   1519.8919      237.65881      1282.2331      289.92584     -5449.0053      1.0177122      4455.7805      0              0              0              0              0             -231.04863    
    793000   1540.9729      256.11402      1284.8589      312.43981      1176.8724      1.0177122      4455.7805      0              0              0              0              0             -230.60541    
    793250   1512.2482      244.26563      1267.9826      297.98566      2522.7705      1.0177122      4455.7805      0              0              0              0              0             -230.94787    
    793500   1512.9475      233.44634      1279.5011      284.78694      67.200813      1.0177122      4455.7805      0              0              0              0              0             -231.59529    
    793750   1539.1764      250.42574      1288.7507      305.50053     -2702.0019      1.0177122      4455.7805      0              0              0              0              0             -232.16803    
    794000   1526.2894      232.2544       1294.035       283.33287     -2245.427       1.0177122      4455.7805      0              0              0              0              0             -231.54684    
    794250   1528.4162      244.09406      1284.3221      297.77635     -817.86982      1.0177122      4455.7805      0              0              0              0              0             -231.79276    
    794500   1539.5904      250.50064      1289.0898      305.5919       261.78255      1.0177122      4455.7805      0              0              0              0              0             -230.97253    
    794750   1544.4472      262.84512      1281.6021      320.65124     -3778.7889      1.0177122      4455.7805      0              0              0              0              0             -230.00299    
    795000   1531.9175      254.55385      1277.3636      310.53651     -3034.5377      1.0177122      4455.7805      0              0              0              0              0             -231.94922    
    795250   1529.8003      243.90284      1285.8975      297.54309     -357.37673      1.0177122      4455.7805      0              0              0              0              0             -234.26075    
    795500   1532.6971      254.12448      1278.5726      310.01272      412.72218      1.0177122      4455.7805      0              0              0              0              0             -231.87514    
    795750   1542.8288      258.92125      1283.9075      315.86442     -351.65664      1.0177122      4455.7805      0              0              0              0              0             -231.96751    
    796000   1519.6726      244.73352      1274.939       298.55645     -2681.7962      1.0177122      4455.7805      0              0              0              0              0             -233.41585    
    796250   1509.2606      243.68207      1265.5785      297.27377     -4058.3819      1.0177122      4455.7805      0              0              0              0              0             -232.44891    
    796500   1528.2839      260.64228      1267.6416      317.96395     -4600.625       1.0177122      4455.7805      0              0              0              0              0             -230.83662    
    796750   1504.7405      230.77789      1273.9626      281.53164     -394.84184      1.0177122      4455.7805      0              0              0              0              0             -231.10101    
    797000   1506.8744      223.39551      1283.4789      272.52569     -1525.7863      1.0177122      4455.7805      0              0              0              0              0             -234.06289    
    797250   1534.8675      241.98443      1292.883       295.20277     -673.53061      1.0177122      4455.7805      0              0              0              0              0             -232.02921    
    797500   1551.2984      276.55957      1274.7388      337.38183      2327.6002      1.0177122      4455.7805      0              0              0              0              0             -232.52295    
    797750   1560.5741      254.82337      1305.7507      310.86531     -1797.529       1.0177122      4455.7805      0              0              0              0              0             -231.90927    
    798000   1537.2243      252.72713      1284.4972      308.30806     -781.0051       1.0177122      4455.7805      0              0              0              0              0             -232.24752    
    798250   1536.099       253.39731      1282.7017      309.12563     -296.75413      1.0177122      4455.7805      0              0              0              0              0             -231.21023    
    798500   1517.9301      248.09243      1269.8376      302.65407     -1259.1012      1.0177122      4455.7805      0              0              0              0              0             -230.17961    
    798750   1521.0687      239.49905      1281.5696      292.17079      3565.9551      1.0177122      4455.7805      0              0              0              0              0             -232.87357    
    799000   1512.7491      227.17413      1285.5749      277.13532     -2020.8499      1.0177122      4455.7805      0              0              0              0              0             -232.19788    
    799250   1524.8737      246.30359      1278.5701      300.47182     -5163.5787      1.0177122      4455.7805      0              0              0              0              0             -232.68849    
    799500   1539.103       254.09916      1285.0038      309.98183     -836.55909      1.0177122      4455.7805      0              0              0              0              0             -230.7859     
    799750   1516.0653      236.23323      1279.8321      288.18673      712.78588      1.0177122      4455.7805      0              0              0              0              0             -232.43252    
    800000   1532.6239      246.53652      1286.0874      300.75597     -1483.2444      1.0177122      4455.7805      0              0              0              0              0             -232.05155    
Loop time of 96.1224 on 4 procs for 800000 steps with 276 atoms

Performance: 719.083 ns/day, 0.033 hours/ns, 8322.719 timesteps/s
99.5% CPU use with 4 MPI tasks x no OpenMP threads

MPI task timing breakdown:
Section |  min time  |  avg time  |  max time  |%varavg| %total
---------------------------------------------------------------
Pair    | 56.5       | 61.435     | 66.118     |  56.3 | 63.91
Bond    | 4.0249     | 4.33       | 4.6479     |  11.5 |  4.50
Neigh   | 0.45427    | 0.45443    | 0.45462    |   0.0 |  0.47
Comm    | 20.755     | 25.524     | 30.493     |  87.3 | 26.55
Output  | 0.038871   | 0.067533   | 0.096546   |  10.0 |  0.07
Modify  | 2.9502     | 2.9676     | 2.9891     |   0.8 |  3.09
Other   |            | 1.345      |            |       |  1.40

Nlocal:             69 ave          73 max          65 min
Histogram: 1 1 0 0 0 0 0 0 1 1
Nghost:         3708.5 ave        3746 max        3674 min
Histogram: 1 1 0 0 0 0 0 1 0 1
Neighs:        27098.2 ave       28900 max       25226 min
Histogram: 1 1 0 0 0 0 0 0 1 1

Total # of neighbors = 108393
Ave neighs/atom = 392.72826
Ave special neighs/atom = 6.4347826
Neighbor list builds = 834
Dangerous builds = 0

unfix			f1
unfix			f2

Total wall time: 0:02:33
