LAMMPS (23 Jun 2022)

log		log.lj_${lambda}
log		log.lj_0
