
#------------------------------------------------------------------------------#
# simulation settings
#------------------------------------------------------------------------------#

##### simulation variables

variable        seed 	equal  20902
variable        T       equal  300	    #K
variable        p       equal  0.0 	#bar
variable        damp_T  equal  100 		  	#K
variable        damp_P  equal  1000.0	  	#bar
variable        dT      equal  1.0 		 	#fs
variable        kb      equal  0.0019872041

## system setup ##

units           real
atom_style      full
boundary        p p p

pair_style      lj/cut/coul/long 12.500
bond_style      harmonic
angle_style     hybrid cosine/periodic fourier
dihedral_style  harmonic
improper_style  fourier
kspace_style 	ewald 0.000001

dielectric 	 	1.0
pair_modify 	tail yes mix arithmetic
special_bonds 	lj/coul 0.0 0.0 1.0

read_data 	 	../data.emin_sod-4c_Zn-2c_mim_fe
Reading data file ...
  triclinic box = (4.5054746 4.3760097 4.4164229) to (20.786525 20.913779 20.965143) with tilt (-0.95270579 -0.51398262 -1.0127119)
  1 by 2 by 2 MPI processor grid
  reading atoms ...
  276 atoms
  reading velocities ...
  276 velocities
  scanning bonds ...
  3 = max bonds/atom
  scanning angles ...
  6 = max angles/atom
  scanning dihedrals ...
  10 = max dihedrals/atom
  scanning impropers ...
  4 = max impropers/atom
  reading bonds ...
  312 bonds
  reading angles ...
  576 angles
  reading dihedrals ...
  624 dihedrals
  reading impropers ...
  360 impropers
Finding 1-2 1-3 1-4 neighbors ...
  special bond factors lj:    0        0        1       
  special bond factors coul:  0        0        1       
     4 = max # of 1-2 neighbors
     8 = max # of 1-3 neighbors
    12 = max # of special neighbors
  special bonds CPU = 0.000 seconds
  read_data CPU = 0.003 seconds
include 	 	../non_bonded_sod-4c_Zn-2c_mim.param
### Parameters for Equilibration ###

### Parameters for MOF ###

mass 1 65.380000000
mass 2 14.006700000
mass 3 12.010700000
mass 4 1.007940000
mass 5 12.010700000


bond_coeff 1 165.837318 1.881712
bond_coeff 2 663.718927 1.345073
bond_coeff 3 369.943935 1.486000
bond_coeff 4 462.655054 1.379256
bond_coeff 5 357.440381 1.081418
bond_coeff 6 331.069389 1.109401

angle_coeff 1 fourier 197.524216 0.343737 0.374972 0.281246
angle_coeff 2 cosine/periodic 45.889625 -1 3
angle_coeff 3 cosine/periodic 120.000516 -1 3
angle_coeff 4 cosine/periodic 212.442573 -1 3
angle_coeff 5 cosine/periodic 136.548728 -1 3
angle_coeff 6 cosine/periodic 153.699352 -1 3
angle_coeff 7 cosine/periodic 79.786967 -1 3
angle_coeff 8 cosine/periodic 57.289016 -1 3
angle_coeff 9 fourier 121.777217 0.343737 0.374972 0.281246
angle_coeff 10 fourier 75.498766 0.343737 0.374972 0.281246

dihedral_coeff 1 3.368555 -1 2
dihedral_coeff 2 0.166667 1 3

improper_coeff 1 2.000000 1.000000 -1.000000 0.000000 0

pair_coeff 1 1 0.124 2.46155
pair_coeff 1 2 0.0924986 2.86112
pair_coeff 1 3 0.114105 2.9462
pair_coeff 1 4 0.0738647 2.51634
pair_coeff 1 5 0.114105 2.9462
pair_coeff 2 2 0.069 3.26069
pair_coeff 2 3 0.0851176 3.34577
pair_coeff 2 4 0.0550999 2.91591
pair_coeff 2 5 0.0851176 3.34577
pair_coeff 3 3 0.105 3.43085
pair_coeff 3 4 0.0679706 3.00099
pair_coeff 3 5 0.105 3.43085
pair_coeff 4 4 0.044 2.57113
pair_coeff 4 5 0.0679706 3.00099
pair_coeff 5 5 0.105 3.43085

group			fram type < 6
276 atoms in group fram

#------------------------------------------------------------------------------#
# ti/spring definition
#------------------------------------------------------------------------------#

reset_timestep	0

variable		t_s equal 1000000
variable		t_eq equal 500000

variable        t_eq equal ${t_eq}-1
variable        t_eq equal 500000-1
variable        t_s equal ${t_s}+1
variable        t_s equal 1000000+1

fix             fs1 fram ti/spring 10 ${t_s} ${t_eq} function 2
fix             fs1 fram ti/spring 10 1000001 ${t_eq} function 2
fix             fs1 fram ti/spring 10 1000001 499999 function 2

variable        dE equal f_fs1
variable        lambda equal f_fs1[1]

fix				f1 all nve
fix 			f2 all langevin ${T} ${T} ${damp_T} ${seed} zero yes
fix 			f2 all langevin 300 ${T} ${damp_T} ${seed} zero yes
fix 			f2 all langevin 300 300 ${damp_T} ${seed} zero yes
fix 			f2 all langevin 300 300 100 ${seed} zero yes
fix 			f2 all langevin 300 300 100 20902 zero yes
compute 		c1 all temp/com
fix_modify		f2 temp c1

thermo_style	custom step etotal ke pe temp press density vol evdwl etail ecoul elong epair f_fs1
thermo 			1000

#------------------------------------------------------------------------------#
# switching
#------------------------------------------------------------------------------#

### forward integration, save to forward.dat

run             ${t_eq}
run             499999

CITE-CITE-CITE-CITE-CITE-CITE-CITE-CITE-CITE-CITE-CITE-CITE-CITE

Your simulation uses code contributions which should be cited:

- ti/spring command:

@article{freitas2016,
  author={Freitas, Rodrigo and Asta, Mark and de Koning, Maurice},
  title={Nonequilibrium free-energy calculation of solids using LAMMPS},
  journal={Computational Materials Science},
  volume={112},
  pages={333--341},
  year={2016},
  publisher={Elsevier}
}

CITE-CITE-CITE-CITE-CITE-CITE-CITE-CITE-CITE-CITE-CITE-CITE-CITE

Ewald initialization ...
  using 12-bit tables for long-range coulomb (../kspace.cpp:342)
  G vector (1/distance) = 0.24281392
  estimated absolute RMS force accuracy = 0.00037231444
  estimated relative force accuracy = 1.1212139e-06
  KSpace vectors: actual max1d max3d = 131 4 364
                  kxmax kymax kzmax  = 4 4 4
Generated 0 of 10 mixed pair_coeff terms from arithmetic mixing rule
Neighbor list info ...
  update every 1 steps, delay 10 steps, check yes
  max neighbors/atom: 2000, page size: 100000
  master list distance cutoff = 14.5
  ghost atom cutoff = 14.5
  binsize = 7.25, bins = 3 3 3
  1 neighbor lists, perpetual/occasional/extra = 1 0 0
  (1) pair lj/cut/coul/long, perpetual
      attributes: half, newton on
      pair build: half/bin/newton/tri
      stencil: half/bin/3d/tri
      bin: standard
WARNING: Inconsistent image flags (../domain.cpp:819)
Per MPI rank memory allocation (min/avg/max) = 20.72 | 20.72 | 20.73 Mbytes
   Step         TotEng         KinEng         PotEng          Temp          Press         Density         Volume         E_vdwl         E_tail         E_coul         E_long         E_pair         f_fs1     
         0  -404.11072      236.8846      -640.99532      288.98137      2330.6998      1.0177122      4455.7805     -161.77947     -4.6924513     -680.98253     -891.56651     -1734.3285      0            
      1000  -122.71131      260.09043     -382.80175      317.29073      3552.0356      1.0177122      4455.7805     -143.43843     -4.6924513     -679.16309     -891.44717     -1714.0487      0            
      2000  -129.1414       244.93204     -374.07344      298.79863     -923.94738      1.0177122      4455.7805     -147.89259     -4.6924513     -677.43069     -891.39481     -1716.7181      0            
      3000  -120.36368      260.69804     -381.06172      318.03196      1744.4106      1.0177122      4455.7805     -145.21471     -4.6924513     -682.60775     -891.50076     -1719.3232      0            
      4000  -156.166        240.86114     -397.02714      293.83244      771.72844      1.0177122      4455.7805     -139.62559     -4.6924513     -681.14936     -891.4028      -1712.1778      0            
      5000  -128.59206      259.72114     -388.3132       316.84022     -2480.0038      1.0177122      4455.7805     -144.43116     -4.6924513     -678.83556     -891.54355     -1714.8103      0            
      6000  -136.85209      250.5966      -387.44869      305.70896      871.61173      1.0177122      4455.7805     -144.46284     -4.6924513     -681.1956      -891.15932     -1716.8178      0            
      7000  -163.8767       226.24345     -390.12015      275.99996     -2146.2968      1.0177122      4455.7805     -139.22749     -4.6924513     -678.2042      -891.38693     -1708.8186      0            
      8000  -140.93438      249.36052     -390.2949       304.20104      3582.6531      1.0177122      4455.7805     -152.67762     -4.6924513     -680.23634     -891.36924     -1724.2832      0            
      9000  -139.34318      246.06159     -385.40477      300.1766      -1354.0148      1.0177122      4455.7805     -145.29625     -4.6924513     -679.23653     -891.53696     -1716.0697      0            
     10000  -154.17674      248.0986      -402.27534      302.66159     -1156.8999      1.0177122      4455.7805     -147.57788     -4.6924513     -682.26221     -891.49977     -1721.3399      0            
     11000  -145.35695      252.44976     -397.8067       307.96968      90.371512      1.0177122      4455.7805     -151.4509      -4.6924513     -678.66898     -891.44314     -1721.563       0            
     12000  -146.66669      229.86879     -376.53547      280.4226      -592.19858      1.0177122      4455.7805     -148.77486     -4.6924513     -680.10191     -891.51023     -1720.387       0            
     13000  -139.62572      247.23383     -386.85955      301.60665     -87.515775      1.0177122      4455.7805     -140.3944      -4.6924513     -683.59993     -891.6297      -1715.624       0            
     14000  -145.24801      256.18333     -401.43134      312.52435      4525.9532      1.0177122      4455.7805     -143.2208      -4.6924513     -679.52115     -891.47549     -1714.2174      0            
     15000  -141.45975      251.73843     -393.19818      307.10191      679.54784      1.0177122      4455.7805     -144.88716     -4.6924513     -683.21262     -891.42806     -1719.5278      0            
     16000  -94.999226      270.50741     -365.50664      329.99865     -3650.2213      1.0177122      4455.7805     -139.46914     -4.6924513     -678.88119     -891.59235     -1709.9427      0            
     17000  -130.18377      255.28715     -385.47092      311.43109      3697.1025      1.0177122      4455.7805     -135.33841     -4.6924513     -683.84212     -891.57366     -1710.7542      0            
     18000  -132.30384      250.06445     -382.36829      305.05979     -1958.8936      1.0177122      4455.7805     -137.09227     -4.6924513     -680.81139     -891.36773     -1709.2714      0            
     19000  -183.71756      220.26132     -403.97888      268.70222      5464.8462      1.0177122      4455.7805     -135.62859     -4.6924513     -681.6021      -891.40673     -1708.6374      0            
     20000  -148.90672      248.47707     -397.3838       303.12331      4215.5804      1.0177122      4455.7805     -141.36469     -4.6924513     -683.10768     -891.52366     -1715.996       0            
     21000  -101.78328      262.19164     -363.97492      319.85404     -2920.6595      1.0177122      4455.7805     -142.00667     -4.6924513     -676.93999     -891.47087     -1710.4175      0            
     22000  -102.74701      283.12999     -385.87701      345.39725     -982.22627      1.0177122      4455.7805     -146.81027     -4.6924513     -680.08804     -891.48086     -1718.3792      0            
     23000  -112.03038      254.63629     -366.66667      310.63709     -3173.6654      1.0177122      4455.7805     -143.02818     -4.6924513     -675.3765      -891.46585     -1709.8705      0            
     24000  -127.73487      244.60652     -372.34138      298.40152      2003.8727      1.0177122      4455.7805     -146.30882     -4.6924513     -678.63523     -891.62138     -1716.5654      0            
     25000  -127.90056      249.48234     -377.3829       304.34966     -8.4965282      1.0177122      4455.7805     -143.78113     -4.6924513     -678.69894     -891.62496     -1714.105       0            
     26000  -113.142        264.25439     -377.39639      322.37045      2863.714       1.0177122      4455.7805     -140.17722     -4.6924513     -680.95937     -891.40461     -1712.5412      0            
     27000  -120.4908       238.5188      -359.00961      290.97497     -2367.2762      1.0177122      4455.7805     -140.18821     -4.6924513     -679.88116     -891.51313     -1711.5825      0            
     28000  -139.57274      264.19577     -403.76851      322.29893      1961.7208      1.0177122      4455.7805     -138.94601     -4.6924513     -681.03062     -891.65329     -1711.6299      0            
     29000  -115.56337      256.88229     -372.44565      313.37703     -945.41153      1.0177122      4455.7805     -141.08026     -4.6924513     -680.71004     -891.59751     -1713.3878      0            
     30000  -106.79662      267.15098     -373.9476       325.90406      1307.2462      1.0177122      4455.7805     -152.61773     -4.6924513     -679.58897     -891.36334     -1723.57        0            
     31000  -141.63514      245.57419     -387.20933      299.58201     -1750.633       1.0177122      4455.7805     -139.10756     -4.6924513     -679.94721     -891.41608     -1710.4709      0            
     32000  -147.7553       250.59646     -398.35175      305.70879      4391.8326      1.0177122      4455.7805     -135.60349     -4.6924513     -679.08923     -891.42136     -1706.1141      0            
     33000  -115.95156      242.35042     -358.30198      295.64925     -1866.8012      1.0177122      4455.7805     -144.37197     -4.6924513     -683.37242     -891.51867     -1719.2631      0            
     34000  -131.14047      260.79109     -391.93157      318.14548      1936.5482      1.0177122      4455.7805     -144.92783     -4.6924513     -677.51326     -891.44029     -1713.8814      0            
     35000  -112.77519      257.75454     -370.52973      314.44111     -866.23072      1.0177122      4455.7805     -144.34809     -4.6924513     -681.66932     -891.42496     -1717.4424      0            
     36000  -132.28427      254.81333     -387.0976       310.85306      1237.0192      1.0177122      4455.7805     -144.73811     -4.6924513     -680.12803     -891.48782     -1716.354       0            
     37000  -133.15811      248.9611      -382.11921      303.71378      1552.1948      1.0177122      4455.7805     -143.85177     -4.6924513     -680.49895     -891.51359     -1715.8643      0            
     38000  -136.09582      252.57036     -388.66618      308.11681     -1938.5217      1.0177122      4455.7805     -148.4833      -4.6924513     -674.88301     -891.49492     -1714.8612      0            
     39000  -146.70673      236.61305     -383.31978      288.65009      3164.828       1.0177122      4455.7805     -136.75336     -4.6924513     -679.76262     -891.45069     -1707.9667      0            
     40000  -143.60296      252.00233     -395.60529      307.42386      2247.3419      1.0177122      4455.7805     -139.71272     -4.6924513     -681.23406     -891.55518     -1712.502       0            
     41000  -135.30679      240.92092     -376.22771      293.90537      888.8805       1.0177122      4455.7805     -149.35224     -4.6924513     -681.55734     -891.56994     -1722.4795      0            
     42000  -122.4943       265.02438     -387.51868      323.30977      1935.7824      1.0177122      4455.7805     -151.99316     -4.6924513     -677.45285     -891.31268     -1720.7587      0            
     43000  -135.36137      247.04363     -382.405        301.37461     -4211.9634      1.0177122      4455.7805     -148.64344     -4.6924513     -680.53201     -891.47764     -1720.6531      0            
     44000  -172.4552       226.64394     -399.09914      276.48853      1157.0582      1.0177122      4455.7805     -147.54678     -4.6924513     -678.95929     -891.46488     -1717.9709      0            
     45000  -115.02308      266.08326     -381.10634      324.60153      113.07867      1.0177122      4455.7805     -143.45553     -4.6924513     -680.60485     -891.41842     -1715.4788      0            
     46000  -113.85754      262.57764     -376.43518      320.32493     -3466.4833      1.0177122      4455.7805     -145.73165     -4.6924513     -681.21693     -891.47276     -1718.4213      0            
     47000  -147.6943       246.49017     -394.18446      300.69943      2379.7951      1.0177122      4455.7805     -146.97955     -4.6924513     -681.62532     -891.4141      -1720.019       0            
     48000  -148.84065      237.79859     -386.63924      290.09636      920.78938      1.0177122      4455.7805     -145.93002     -4.6924513     -681.60638     -891.47094     -1719.0073      0            
     49000  -130.99166      266.5593      -397.55096      325.18226      892.81751      1.0177122      4455.7805     -144.50746     -4.6924513     -680.02275     -891.588       -1716.1182      0            
     50000  -107.55081      276.26631     -383.81712      337.02408      197.554        1.0177122      4455.7805     -146.28076     -4.6924513     -677.71054     -891.67697     -1715.6683      0            
     51000  -136.46443      257.21553     -393.67996      313.78356      1156.2442      1.0177122      4455.7805     -139.06188     -4.6924513     -680.07524     -891.62207     -1710.7592      0            
     52000  -142.03553      242.62681     -384.66235      295.98643      2769.5182      1.0177122      4455.7805     -141.77965     -4.6924513     -680.00624     -891.45481     -1713.2407      0            
     53000  -121.45483      247.39644     -368.85127      301.80502     -3256.6749      1.0177122      4455.7805     -141.26883     -4.6924513     -678.72873     -891.37423     -1711.3718      0            
     54000  -139.51582      235.91241     -375.42822      287.79536      1745.1411      1.0177122      4455.7805     -129.49893     -4.6924513     -679.55463     -891.55433     -1700.6079      0            
     55000  -120.17465      260.77136     -380.94602      318.12141      3062.0803      1.0177122      4455.7805     -138.13325     -4.6924513     -681.60325     -891.41665     -1711.1531      0            
     56000  -135.28801      250.0853      -385.37332      305.08522      4216.3957      1.0177122      4455.7805     -143.81569     -4.6924513     -679.99019     -891.56811     -1715.374       0            
     57000  -128.17522      253.10666     -381.28188      308.77106      2499.4014      1.0177122      4455.7805     -134.3476      -4.6924513     -684.0297      -891.46209     -1709.8394      0            
     58000  -130.199        251.17599     -381.37499      306.41578      1869.2392      1.0177122      4455.7805     -134.45712     -4.6924513     -679.84869     -891.48536     -1705.7912      0            
     59000  -145.74914      248.89807     -394.64722      303.63689      1198.185       1.0177122      4455.7805     -139.36827     -4.6924513     -678.87526     -891.49431     -1709.7378      0            
     60000  -148.20316      249.52502     -397.72818      304.40172      7061.5665      1.0177122      4455.7805     -132.20266     -4.6924513     -684.42012     -891.54701     -1708.1698      0            
     61000  -175.1106       232.63855     -407.74915      283.80149     -1052.383       1.0177122      4455.7805     -146.28696     -4.6924513     -680.53999     -891.581       -1718.4079      0            
     62000  -118.65776      269.24438     -387.90213      328.45785      2472.1295      1.0177122      4455.7805     -150.39659     -4.6924513     -681.97211     -891.54877     -1723.9175      0            
     63000  -144.11176      253.87798     -397.98974      309.71201      4726.5482      1.0177122      4455.7805     -135.2307      -4.6924513     -684.2173      -891.55718     -1711.0052      0            
     64000  -129.08003      251.99841     -381.07844      307.41907      842.95293      1.0177122      4455.7805     -138.59068     -4.6924513     -679.35561     -891.54917     -1709.4955      0            
     65000  -134.23572      254.59931     -388.83503      310.59197     -734.61987      1.0177122      4455.7805     -135.92669     -4.6924513     -680.73196     -891.30326     -1707.9619      0            
     66000  -142.50327      229.46656     -371.96983      279.93192      6142.5337      1.0177122      4455.7805     -147.67037     -4.6924513     -680.29216     -891.49806     -1719.4606      0            
     67000  -141.3213       256.75989     -398.08119      313.22772     -4792.6619      1.0177122      4455.7805     -140.03293     -4.6924513     -680.34269     -891.50222     -1711.8778      0            
     68000  -142.32716      244.5685      -386.89566      298.35514      2211.244       1.0177122      4455.7805     -146.93609     -4.6924513     -676.62751     -891.56782     -1715.1314      0            
     69000  -132.46002      256.57592     -389.03594      313.00328     -47.414446      1.0177122      4455.7805     -150.91839     -4.6924513     -676.9691      -891.52309     -1719.4106      0            
     70000  -147.24074      248.86342     -396.10417      303.59462      3635.1667      1.0177122      4455.7805     -143.62004     -4.6924513     -680.90175     -891.40745     -1715.9292      0            
     71000  -165.60569      228.97112     -394.57681      279.32751     -2004.1048      1.0177122      4455.7805     -145.768       -4.6924513     -676.73395     -891.57169     -1714.0736      0            
     72000  -166.89764      235.92871     -402.82634      287.81524     -412.71434      1.0177122      4455.7805     -144.3373      -4.6924513     -681.76917     -891.60222     -1717.7087      0            
     73000  -133.59303      244.60279     -378.19582      298.39697     -3401.5972      1.0177122      4455.7805     -149.91066     -4.6924513     -680.06852     -891.47144     -1721.4506      0            
     74000  -152.60596      252.37943     -404.9854       307.88389      3136.4312      1.0177122      4455.7805     -148.16561     -4.6924513     -679.64656     -891.4531      -1719.2653      0            
     75000  -121.68827      258.26457     -379.95284      315.06332      1398.9352      1.0177122      4455.7805     -141.12713     -4.6924513     -680.80832     -891.4034      -1713.3388      0            
     76000  -143.22116      245.79041     -389.01157      299.84578      6609.5143      1.0177122      4455.7805     -135.57606     -4.6924513     -677.75225     -891.4282      -1704.7565      0            
     77000  -127.73232      249.73321     -377.46553      304.6557      -4418.7781      1.0177122      4455.7805     -155.74873     -4.6924513     -676.41686     -891.33176     -1723.4974      0            
     78000  -133.39629      250.43809     -383.83438      305.5156       1095.4653      1.0177122      4455.7805     -145.13658     -4.6924513     -682.3951      -891.69486     -1719.2265      0            
     79000  -128.24616      259.34382     -387.58998      316.37991      668.90121      1.0177122      4455.7805     -143.5616      -4.6924513     -678.27522     -891.55708     -1713.3939      0            
     80000  -179.491        228.83317     -408.32417      279.15922      636.23767      1.0177122      4455.7805     -150.68266     -4.6924513     -678.89338     -891.43567     -1721.0117      0            
     81000  -157.44416      252.10353     -409.54769      307.54731      3105.4665      1.0177122      4455.7805     -158.6142      -4.6924513     -678.48371     -891.48956     -1728.5875      0            
     82000  -127.07936      266.36883     -393.44819      324.9499      -3779.9775      1.0177122      4455.7805     -146.85366     -4.6924513     -676.93753     -891.25746     -1715.0486      0            
     83000  -118.3386       265.63814     -383.97674      324.05851     -1042.5444      1.0177122      4455.7805     -146.78332     -4.6924513     -680.63638     -891.64989     -1719.0696      0            
     84000  -135.02293      269.67032     -404.69325      328.97747      4217.3096      1.0177122      4455.7805     -138.2139      -4.6924513     -679.82233     -891.62938     -1709.6656      0            
     85000  -116.73747      249.42075     -366.15822      304.27452      4635.9713      1.0177122      4455.7805     -144.50288     -4.6924513     -680.24754     -891.35459     -1716.105       0            
     86000  -120.38988      253.00839     -373.39827      308.65117      4255.6693      1.0177122      4455.7805     -138.28234     -4.6924513     -683.12677     -891.53279     -1712.9419      0            
     87000  -148.86973      240.91952     -389.78924      293.90365      3607.9938      1.0177122      4455.7805     -132.23463     -4.6924513     -686.53585     -891.54304     -1710.3135      0            
     88000  -175.0875       246.38254     -421.47004      300.56813      2005.6493      1.0177122      4455.7805     -148.60106     -4.6924513     -681.07687     -891.58594     -1721.2639      0            
     89000  -165.95501      211.29594     -377.25095      257.76513     -2964.8071      1.0177122      4455.7805     -148.47096     -4.6924513     -678.07057     -891.43175     -1717.9733      0            
     90000  -112.83973      255.306       -368.14573      311.45408      4188.7377      1.0177122      4455.7805     -146.01673     -4.6924513     -682.44444     -891.58677     -1720.0479      0            
     91000  -137.99082      246.18877     -384.17959      300.33175      4369.6857      1.0177122      4455.7805     -142.18311     -4.6924513     -684.64642     -891.60271     -1718.4322      0            
     92000  -165.40321      236.18319     -401.5864       288.12569      9.0573197      1.0177122      4455.7805     -149.71937     -4.6924513     -676.44768     -891.47416     -1717.6412      0            
     93000  -134.05612      245.53852     -379.59464      299.53849      209.97303      1.0177122      4455.7805     -147.85027     -4.6924513     -683.85619     -891.52059     -1723.227       0            
     94000  -134.07568      242.35384     -376.42952      295.65342     -2483.7015      1.0177122      4455.7805     -147.62795     -4.6924513     -679.96574     -891.37092     -1718.9646      0            
     95000  -136.87274      249.9982      -386.87095      304.97897      5067.6145      1.0177122      4455.7805     -147.99418     -4.6924513     -678.24927     -891.45988     -1717.7033      0            
     96000  -138.08927      249.26573     -387.355        304.08541     -82.547999      1.0177122      4455.7805     -144.48891     -4.6924513     -677.11927     -891.42283     -1713.031       0            
     97000  -126.32114      246.11894     -372.44008      300.24656     -1659.8909      1.0177122      4455.7805     -136.05255     -4.6924513     -676.61028     -891.51172     -1704.1746      0            
     98000  -101.86158      276.48752     -378.3491       337.29394      1292.7039      1.0177122      4455.7805     -143.93299     -4.6924513     -679.6943      -891.5852      -1715.2125      0            
     99000  -135.01533      259.50143     -394.51676      316.57219      712.00812      1.0177122      4455.7805     -147.66324     -4.6924513     -680.72552     -891.51894     -1719.9077      0            
    100000  -105.3245       263.49564     -368.82014      321.44482      1999.0628      1.0177122      4455.7805     -144.98997     -4.6924513     -677.49028     -891.32354     -1713.8038      0            
    101000  -95.365684      276.38376     -371.74944      337.16736     -1763.4552      1.0177122      4455.7805     -152.2468      -4.6924513     -678.36664     -891.37597     -1721.9894      0            
    102000  -149.78858      251.87618     -401.66477      307.26996      1469.4306      1.0177122      4455.7805     -142.0882      -4.6924513     -679.17657     -891.44173     -1712.7065      0            
    103000  -157.06715      231.53317     -388.60032      282.45302      328.74571      1.0177122      4455.7805     -150.81104     -4.6924513     -679.24124     -891.58008     -1721.6324      0            
    104000  -115.16397      265.01732     -380.18128      323.30116      7964.7896      1.0177122      4455.7805     -147.35983     -4.6924513     -684.45601     -891.52757     -1723.3434      0            
    105000  -107.24626      275.46711     -382.71337      336.04911      165.81574      1.0177122      4455.7805     -152.84841     -4.6924513     -682.13146     -891.57804     -1726.5579      0            
    106000  -133.85828      251.03732     -384.8956       306.24661      659.14267      1.0177122      4455.7805     -150.99126     -4.6924513     -678.14635     -891.29326     -1720.4309      0            
    107000  -116.67039      265.97531     -382.64571      324.46984     -238.1514       1.0177122      4455.7805     -142.40508     -4.6924513     -679.77416     -891.6766      -1713.8558      0            
    108000  -145.61713      251.40412     -397.02125      306.69408      3758.8388      1.0177122      4455.7805     -146.10135     -4.6924513     -683.22087     -891.39413     -1720.7164      0            
    109000  -118.73609      265.70276     -384.43885      324.13735      6365.0202      1.0177122      4455.7805     -138.32891     -4.6924513     -677.67162     -891.46719     -1707.4677      0            
    110000  -135.94209      256.25334     -392.19543      312.60976     -684.35166      1.0177122      4455.7805     -139.47124     -4.6924513     -680.15762     -891.45085     -1711.0797      0            
    111000  -131.00394      269.59045     -400.59439      328.88003      2584.382       1.0177122      4455.7805     -135.83558     -4.6924513     -679.74757     -891.4865      -1707.0697      0            
    112000  -114.10698      256.17138     -370.27837      312.50978     -1901.7898      1.0177122      4455.7805     -150.34583     -4.6924513     -681.45777     -891.43883     -1723.2424      0            
    113000  -110.86506      269.67816     -380.54322      328.98703      2511.7008      1.0177122      4455.7805     -133.35319     -4.6924513     -682.19306     -891.43268     -1706.9789      0            
    114000  -118.99295      260.98782     -379.98077      318.38548      563.36153      1.0177122      4455.7805     -135.97966     -4.6924513     -677.43029     -891.47902     -1704.889       0            
    115000  -130.76328      246.80187     -377.56515      301.07969      5481.2837      1.0177122      4455.7805     -143.95448     -4.6924513     -681.6323      -891.68325     -1717.27        0            
    116000  -126.5105       273.49952     -400.01002      333.6488       3002.694       1.0177122      4455.7805     -151.01638     -4.6924513     -677.24374     -891.47822     -1719.7384      0            
    117000  -105.76854      264.46998     -370.23852      322.63345      196.75162      1.0177122      4455.7805     -149.19941     -4.6924513     -679.87609     -891.51174     -1720.5872      0            
    118000  -153.34119      236.99596     -390.33716      289.11722     -1511.3599      1.0177122      4455.7805     -145.95164     -4.6924513     -680.24806     -891.42597     -1717.6257      0            
    119000  -143.26249      236.40202     -379.66451      288.39265      1327.0417      1.0177122      4455.7805     -141.03611     -4.6924513     -680.08951     -891.39255     -1712.5182      0            
    120000  -98.189195      262.7312      -360.92039      320.51226     -3616.6972      1.0177122      4455.7805     -137.74385     -4.6924513     -676.4627      -891.40832     -1705.6149      0            
    121000  -131.00863      245.55308     -376.56171      299.55625      131.31356      1.0177122      4455.7805     -143.27912     -4.6924513     -681.1149      -891.52502     -1715.919       0            
    122000  -111.80238      252.53215     -364.33452      308.07019      2817.52        1.0177122      4455.7805     -148.57661     -4.6924513     -681.91643     -891.51464     -1722.0077      0            
    123000  -110.3074       248.58001     -358.88741      303.24888      3041.2089      1.0177122      4455.7805     -143.83968     -4.6924513     -681.51501     -891.53723     -1716.8919      0            
    124000  -149.19244      245.06984     -394.26228      298.96674     -1165.4251      1.0177122      4455.7805     -147.66702     -4.6924513     -679.30974     -891.47445     -1718.4512      0            
    125000  -136.67046      249.47927     -386.14973      304.3459      -1507.1786      1.0177122      4455.7805     -141.71145     -4.6924513     -679.30178     -891.32963     -1712.3429      0            
    126000  -134.44562      260.64001     -395.08563      317.96117     -1251.3093      1.0177122      4455.7805     -154.70579     -4.6924513     -677.81202     -891.41634     -1723.9342      0            
    127000  -147.79111      225.75302     -373.54413      275.40167      1529.7565      1.0177122      4455.7805     -154.47323     -4.6924513     -676.85936     -891.60448     -1722.9371      0            
    128000  -155.14835      252.30145     -407.4498       307.78876     -69.689198      1.0177122      4455.7805     -150.4672      -4.6924513     -682.72497     -891.37263     -1724.5648      0            
    129000  -104.94262      249.76378     -354.7064       304.69299      529.67695      1.0177122      4455.7805     -136.41848     -4.6924513     -676.41563     -891.51638     -1704.3505      0            
    130000  -161.63741      250.71354     -412.35095      305.85163      2743.6629      1.0177122      4455.7805     -150.37522     -4.6924513     -682.44986     -891.45198     -1724.2771      0            
    131000  -154.50853      243.28842     -397.79695      296.79354     -1221.7918      1.0177122      4455.7805     -141.62912     -4.6924513     -679.59456     -891.54631     -1712.77        0            
    132000  -147.37082      251.00387     -398.37468      306.2058      -694.70089      1.0177122      4455.7805     -148.92199     -4.6924513     -680.1263      -891.57093     -1720.6192      0            
    133000  -119.38826      264.75296     -384.14122      322.97866      5358.6949      1.0177122      4455.7805     -144.41096     -4.6924513     -682.61854     -891.54538     -1718.5749      0            
    134000  -154.71639      236.94726     -391.66365      289.0578       2278.888       1.0177122      4455.7805     -146.37313     -4.6924513     -682.59845     -891.50907     -1720.4807      0            
    135000  -169.96217      221.64059     -391.60276      270.38482      3117.1237      1.0177122      4455.7805     -137.51952     -4.6924513     -679.0707      -891.41115     -1708.0014      0            
    136000  -154.37365      229.20292     -383.57657      279.61029      1356.4636      1.0177122      4455.7805     -142.44894     -4.6924513     -684.10665     -891.59017     -1718.1458      0            
    137000  -103.64893      248.28133     -351.93026      302.88452      2739.3209      1.0177122      4455.7805     -143.72654     -4.6924513     -680.96155     -891.55836     -1716.2465      0            
    138000  -158.63109      247.92579     -406.55687      302.45078     -2561.0645      1.0177122      4455.7805     -151.86377     -4.6924513     -679.92356     -891.51345     -1723.3008      0            
    139000  -144.38558      254.85007     -399.23565      310.89788      1475.8011      1.0177122      4455.7805     -149.6614      -4.6924513     -681.44386     -891.42578     -1722.531       0            
    140000  -147.36563      242.2167      -389.58233      295.48612      923.2037       1.0177122      4455.7805     -145.52419     -4.6924513     -677.86478     -891.32344     -1714.7124      0            
    141000  -137.88085      241.60798     -379.48882      294.74352      1478.6161      1.0177122      4455.7805     -147.04534     -4.6924513     -684.2057      -891.59584     -1722.8469      0            
    142000  -121.68214      259.32663     -381.00877      316.35895      1789.4645      1.0177122      4455.7805     -149.1404      -4.6924513     -681.69222     -891.5361      -1722.3687      0            
    143000  -140.17751      222.73411     -362.91162      271.71883      3029.9484      1.0177122      4455.7805     -144.52345     -4.6924513     -679.74774     -891.52402     -1715.7952      0            
    144000  -145.47898      234.92043     -380.39941      286.58522      5840.867       1.0177122      4455.7805     -141.32154     -4.6924513     -683.46638     -891.45934     -1716.2473      0            
    145000  -160.39247      232.7934      -393.18587      283.99041     -3123.3985      1.0177122      4455.7805     -142.78111     -4.6924513     -680.51082     -891.43103     -1714.723       0            
    146000  -146.88335      222.82413     -369.70748      271.82865     -1465.6833      1.0177122      4455.7805     -144.25817     -4.6924513     -679.90777     -891.50215     -1715.6681      0            
    147000  -158.90274      228.48514     -387.38787      278.73465      4357.8743      1.0177122      4455.7805     -137.93886     -4.6924513     -679.48886     -891.5578      -1708.9855      0            
    148000  -132.75349      256.30562     -389.05912      312.67355      1540.6734      1.0177122      4455.7805     -143.75944     -4.6924513     -679.15069     -891.58584     -1714.496       0            
    149000  -147.27958      250.3091      -397.58868      305.35824      452.60212      1.0177122      4455.7805     -151.11943     -4.6924513     -678.0608      -891.34943     -1720.5297      0            
    150000  -155.91702      228.9519      -384.86892      279.30407      396.24104      1.0177122      4455.7805     -143.92103     -4.6924513     -682.79929     -891.51766     -1718.238       0            
    151000  -156.86925      238.83971     -395.70896      291.36645      2605.1401      1.0177122      4455.7805     -143.07812     -4.6924513     -684.23148     -891.6102      -1718.9198      0            
    152000  -149.01642      236.5823      -385.59872      288.61258     -2003.8208      1.0177122      4455.7805     -146.93357     -4.6924513     -678.46492     -891.48225     -1716.8807      0            
    153000  -140.29457      242.26349     -382.55806      295.5432       1444.8567      1.0177122      4455.7805     -149.57398     -4.6924513     -679.3098      -891.2411      -1720.1249      0            
    154000  -164.60714      231.19199     -395.79912      282.0368      -1242.4983      1.0177122      4455.7805     -144.46334     -4.6924513     -679.30712     -891.26477     -1715.0352      0            
    155000  -163.63567      229.53654     -393.17221      280.01728      700.50954      1.0177122      4455.7805     -148.61219     -4.6924513     -677.84336     -891.3883      -1717.8438      0            
    156000  -138.87521      235.81231     -374.68752      287.67325      3904.2573      1.0177122      4455.7805     -146.76384     -4.6924513     -682.11156     -891.44729     -1720.3227      0            
    157000  -106.35951      248.50934     -354.86886      303.16267      5753.7887      1.0177122      4455.7805     -140.47728     -4.6924513     -681.75335     -891.42635     -1713.657       0            
    158000  -133.12095      253.13123     -386.25219      308.80103      843.48981      1.0177122      4455.7805     -145.08134     -4.6924513     -680.12387     -891.33658     -1716.5418      0            
    159000  -133.91994      245.7953      -379.71524      299.85174     -3559.2982      1.0177122      4455.7805     -143.70873     -4.6924513     -677.57344     -891.57695     -1712.8591      0            
    160000  -137.13469      250.9931      -388.12779      306.19267     -1114.6596      1.0177122      4455.7805     -145.10473     -4.6924513     -677.03927     -891.73358     -1713.8776      0            
    161000  -115.83696      264.26843     -380.10539      322.38757      3170.076       1.0177122      4455.7805     -145.58179     -4.6924513     -678.66485     -891.39576     -1715.6424      0            
    162000  -132.48134      248.05772     -380.53907      302.61173     -3506.1858      1.0177122      4455.7805     -134.34431     -4.6924513     -679.15051     -891.43318     -1704.928       0            
    163000  -143.39197      245.35175     -388.74372      299.31064      2574.7243      1.0177122      4455.7805     -145.75986     -4.6924513     -679.52551     -891.62239     -1716.9078      0            
    164000  -132.79639      258.31957     -391.11595      315.13041      2066.781       1.0177122      4455.7805     -140.09544     -4.6924513     -679.9915      -891.36253     -1711.4495      0            
    165000  -146.82606      252.58248     -399.40854      308.13159      3700.5554      1.0177122      4455.7805     -149.6285      -4.6924513     -680.9075      -891.49767     -1722.0337      0            
    166000  -127.83515      251.86184     -379.69699      307.25247      1318.3822      1.0177122      4455.7805     -147.17295     -4.6924513     -682.24061     -891.60723     -1721.0208      0            
    167000  -137.62588      259.19198     -396.81786      316.19468      3499.437       1.0177122      4455.7805     -143.90773     -4.6924513     -680.99496     -891.4755      -1716.3782      0            
    168000  -102.08193      287.2397      -389.32163      350.41078      142.03928      1.0177122      4455.7805     -148.8284      -4.6924513     -675.89248     -891.56974     -1716.2906      0            
    169000  -146.62919      244.27346     -390.90265      297.99521      1869.6014      1.0177122      4455.7805     -150.22678     -4.6924513     -675.16777     -891.43775     -1716.8323      0            
    170000  -129.80631      235.85206     -365.65837      287.72174      1402.6015      1.0177122      4455.7805     -146.78831     -4.6924513     -680.99895     -891.5875      -1719.3748      0            
    171000  -131.80069      239.41241     -371.2131       292.0651       1243.9041      1.0177122      4455.7805     -152.29436     -4.6924513     -679.11778     -891.3789      -1722.791       0            
    172000  -138.38821      252.92093     -391.30914      308.54447     -1509.7417      1.0177122      4455.7805     -139.66416     -4.6924513     -678.70264     -891.57384     -1709.9406      0            
    173000  -142.39378      245.55319     -387.94697      299.55639     -2565.8779      1.0177122      4455.7805     -149.791       -4.6924513     -679.46516     -891.38232     -1720.6385      0            
    174000  -141.25185      244.07306     -385.32491      297.75074     -2141.7796      1.0177122      4455.7805     -142.84981     -4.6924513     -678.19203     -891.68066     -1712.7225      0            
    175000  -133.54902      258.5998      -392.14882      315.47227      4122.6094      1.0177122      4455.7805     -136.34991     -4.6924513     -680.52482     -891.36331     -1708.238       0            
    176000  -143.48829      249.49168     -392.97997      304.36105      564.71799      1.0177122      4455.7805     -147.77364     -4.6924513     -681.95448     -891.6588      -1721.3869      0            
    177000  -127.46761      238.45547     -365.92308      290.8977       5550.9269      1.0177122      4455.7805     -143.41192     -4.6924513     -679.87797     -891.38887     -1714.6788      0            
    178000  -144.02661      250.00851     -394.03512      304.99154     -369.21147      1.0177122      4455.7805     -150.40661     -4.6924513     -680.86528     -891.4766      -1722.7485      0            
    179000  -124.67083      258.61218     -383.28302      315.48737     -3926.4554      1.0177122      4455.7805     -148.00905     -4.6924513     -680.27587     -891.40309     -1719.688       0            
    180000  -142.61254      232.23402     -374.84656      283.30801      2256.2919      1.0177122      4455.7805     -136.47975     -4.6924513     -679.15321     -891.55612     -1707.1891      0            
    181000  -89.923521      276.60975     -366.53327      337.44305      3058.0501      1.0177122      4455.7805     -141.01007     -4.6924513     -682.23265     -891.40538     -1714.6481      0            
    182000  -124.19974      254.84255     -379.04229      310.88871     -2789.6165      1.0177122      4455.7805     -136.05764     -4.6924513     -678.32794     -891.48352     -1705.8691      0            
    183000  -120.84521      262.63869     -383.4839       320.39941      794.09833      1.0177122      4455.7805     -152.7485      -4.6924513     -678.55114     -891.45633     -1722.756       0            
    184000  -119.78074      257.04696     -376.8277       313.57793      791.21942      1.0177122      4455.7805     -136.83199     -4.6924513     -678.54515     -891.40354     -1706.7807      0            
    185000  -132.59063      260.21076     -392.80139      317.43752      60.663425      1.0177122      4455.7805     -135.9843      -4.6924513     -680.70766     -891.57486     -1708.2668      0            
    186000  -135.41733      248.00214     -383.41947      302.54392      82.708133      1.0177122      4455.7805     -147.13682     -4.6924513     -681.4706      -891.35067     -1719.9581      0            
    187000  -132.7585       256.14413     -388.90263      312.47653      1938.3987      1.0177122      4455.7805     -143.05469     -4.6924513     -679.94487     -891.46708     -1714.4666      0            
    188000  -155.23682      254.62949     -409.86631      310.62879      1624.3093      1.0177122      4455.7805     -139.44401     -4.6924513     -680.72595     -891.4844      -1711.6544      0            
    189000  -158.70752      233.05073     -391.75826      284.30433      1840.4325      1.0177122      4455.7805     -138.67854     -4.6924513     -680.79897     -891.42558     -1710.9031      0            
    190000  -104.3672       284.70475     -389.07195      347.31834      2544.6683      1.0177122      4455.7805     -144.01053     -4.6924513     -681.51195     -891.48944     -1717.0119      0            
    191000  -156.00565      245.60763     -401.61328      299.6228       5782.2806      1.0177122      4455.7805     -143.22426     -4.6924513     -679.94086     -891.51688     -1714.682       0            
    192000  -108.24272      263.36966     -371.61239      321.29114     -193.5142       1.0177122      4455.7805     -148.80713     -4.6924513     -678.44749     -891.49838     -1718.753       0            
    193000  -121.58465      277.18714     -398.7718       338.14743      3788.9532      1.0177122      4455.7805     -139.98814     -4.6924513     -681.86228     -891.39019     -1713.2406      0            
    194000  -145.33049      241.84298     -387.17347      295.03022      7888.7419      1.0177122      4455.7805     -144.77416     -4.6924513     -681.63233     -891.54676     -1717.9532      0            
    195000  -143.664        241.70868     -385.37268      294.86637      3573.8155      1.0177122      4455.7805     -149.19492     -4.6924513     -680.5851      -891.51057     -1721.2906      0            
    196000  -135.71726      244.14486     -379.86212      297.83833     -4011.5175      1.0177122      4455.7805     -145.01512     -4.6924513     -678.3652      -891.64709     -1715.0274      0            
    197000  -143.76073      239.90611     -383.66683      292.66737     -3890.4096      1.0177122      4455.7805     -133.25737     -4.6924513     -681.51617     -891.53284     -1706.3064      0            
    198000  -108.52978      271.89292     -380.4227       331.68887      5020.0313      1.0177122      4455.7805     -142.34708     -4.6924513     -681.83013     -891.57247     -1715.7497      0            
    199000  -118.30138      255.01284     -373.31422      311.09645      1260.4848      1.0177122      4455.7805     -145.7109      -4.6924513     -680.89794     -891.41288     -1718.0217      0            
    200000  -110.8289       271.56726     -382.39616      331.29159      4821.4454      1.0177122      4455.7805     -132.20952     -4.6924513     -681.38245     -891.45842     -1705.0504      0            
    201000  -124.82158      264.42789     -389.24948      322.5821      -3932.0936      1.0177122      4455.7805     -150.34572     -4.6924513     -680.90077     -891.39564     -1722.6421      0            
    202000  -140.02622      247.20636     -387.23259      301.57313      5577.7753      1.0177122      4455.7805     -140.43143     -4.6924513     -683.09561     -891.5894      -1715.1164      0            
    203000  -140.75421      258.80945     -399.56366      315.72802      1566.6417      1.0177122      4455.7805     -155.02134     -4.6924513     -678.82317     -891.53093     -1725.3754      0            
    204000  -152.76041      248.99814     -401.75855      303.75897      4671.8504      1.0177122      4455.7805     -140.30019     -4.6924513     -678.74475     -891.49677     -1710.5417      0            
    205000  -135.52152      256.70188     -392.22341      313.15695     -136.0104       1.0177122      4455.7805     -154.07158     -4.6924513     -680.96901     -891.62151     -1726.6621      0            
    206000  -111.88818      255.51474     -367.40292      311.70872     -273.90031      1.0177122      4455.7805     -142.61718     -4.6924513     -678.52082     -891.55037     -1712.6884      0            
    207000  -140.33776      232.92725     -373.265        284.15369      1720.8394      1.0177122      4455.7805     -140.37053     -4.6924513     -678.58149     -891.60934     -1710.5614      0            
    208000  -158.97901      231.73211     -390.71113      282.69572     -1118.6311      1.0177122      4455.7805     -143.71647     -4.6924513     -680.79683     -891.39149     -1715.9048      0            
    209000  -120.7172       274.05745     -394.77465      334.32943      3273.0245      1.0177122      4455.7805     -141.56927     -4.6924513     -684.59643     -891.71311     -1717.8788      0            
    210000  -128.99211      265.79127     -394.78338      324.24532      231.45544      1.0177122      4455.7805     -142.17817     -4.6924513     -680.2678      -891.47503     -1713.921       0            
    211000  -133.79963      247.29407     -381.0937       301.68013      917.25255      1.0177122      4455.7805     -141.10809     -4.6924513     -677.54521     -891.5408      -1710.1941      0            
    212000  -126.09305      238.05384     -364.14689      290.40775      3403.4855      1.0177122      4455.7805     -144.99686     -4.6924513     -678.82202     -891.36394     -1715.1828      0            
    213000  -160.04079      220.05795     -380.09875      268.45412      2076.4966      1.0177122      4455.7805     -140.60374     -4.6924513     -681.02925     -891.42739     -1713.0604      0            
    214000  -130.80845      260.76945     -391.5779       318.11908      1480.894       1.0177122      4455.7805     -153.92471     -4.6924513     -679.44885     -891.51328     -1724.8868      0            
    215000  -128.87027      238.32915     -367.19942      290.74361     -432.3187       1.0177122      4455.7805     -153.24435     -4.6924513     -681.19926     -891.54688     -1725.9905      0            
    216000  -112.31551      252.22471     -364.54022      307.69514     -2531.0097      1.0177122      4455.7805     -144.81762     -4.6924513     -681.39524     -891.4111      -1717.624       0            
    217000  -164.73254      238.82366     -403.5562       291.34686      974.20594      1.0177122      4455.7805     -139.03667     -4.6924513     -683.54973     -891.3982      -1713.9846      0            
    218000  -111.19058      267.14095     -378.33153      325.89182     -692.35779      1.0177122      4455.7805     -142.53664     -4.6924513     -681.03308     -891.47268     -1715.0424      0            
    219000  -149.83335      240.48834     -390.32169      293.37765     -1397.3484      1.0177122      4455.7805     -153.35587     -4.6924513     -677.6987      -891.5825      -1722.6371      0            
    220000  -146.0904       251.28203     -397.37242      306.54514      4086.9988      1.0177122      4455.7805     -145.35201     -4.6924513     -677.29407     -891.30462     -1713.9507      0            
    221000  -176.65039      228.87352     -405.52391      279.20845      794.94619      1.0177122      4455.7805     -148.49268     -4.6924513     -679.99346     -891.42764     -1719.9138      0            
    222000  -141.97927      251.00003     -392.9793       306.20112      2712.1814      1.0177122      4455.7805     -138.28875     -4.6924513     -676.78846     -891.4841      -1706.5613      0            
    223000  -127.08891      250.10977     -377.19869      305.11507     -1106.972       1.0177122      4455.7805     -139.4427      -4.6924513     -682.08855     -891.33212     -1712.8634      0            
    224000  -127.70947      269.8265      -397.53597      329.16799     -1506.0282      1.0177122      4455.7805     -147.89959     -4.6924513     -678.56705     -891.4529      -1717.9195      0            
    225000  -123.19804      271.10869     -394.30673      330.73217      1789.0726      1.0177122      4455.7805     -149.4858      -4.6924513     -678.09605     -891.57568     -1719.1575      0            
    226000  -135.80031      245.34481     -381.14513      299.30218     -2199.8036      1.0177122      4455.7805     -153.99037     -4.6924513     -675.76277     -891.43306     -1721.1862      0            
    227000  -91.182145      261.94736     -353.12951      319.55604     -3949.6301      1.0177122      4455.7805     -143.62125     -4.6924513     -680.46731     -891.49383     -1715.5824      0            
    228000  -110.35549      264.03277     -374.38826      322.10008     -2638.4872      1.0177122      4455.7805     -139.65098     -4.6924513     -679.51982     -891.44062     -1710.6114      0            
    229000  -164.40525      226.59228     -390.99753      276.4255       2810.645       1.0177122      4455.7805     -141.16695     -4.6924513     -680.3298      -891.3378      -1712.8346      0            
    230000  -95.588706      258.33419     -353.92289      315.14824      0.57068193     1.0177122      4455.7805     -148.82801     -4.6924513     -677.31548     -891.4472      -1717.5907      0            
    231000  -128.11998      254.79843     -382.91841      310.83488     -112.68252      1.0177122      4455.7805     -146.42505     -4.6924513     -677.31753     -891.63007     -1715.3726      0            
    232000  -151.08145      243.17213     -394.25358      296.65167      3691.411       1.0177122      4455.7805     -139.99843     -4.6924513     -678.63037     -891.51755     -1710.1464      0            
    233000  -152.45473      241.00504     -393.45977      294.00799      4810.9375      1.0177122      4455.7805     -145.57541     -4.6924513     -684.67913     -891.58133     -1721.8359      0            
    234000  -137.24406      257.01791     -394.26198      313.54249      1209.3527      1.0177122      4455.7805     -143.36297     -4.6924513     -682.20942     -891.46541     -1717.0378      0            
    235000  -110.03073      276.60587     -386.6366       337.43831      830.98065      1.0177122      4455.7805     -146.39435     -4.6924513     -679.10968     -891.49118     -1716.9952      0            
    236000  -85.305165      270.72258     -356.02774      330.26114      3297.9187      1.0177122      4455.7805     -150.13933     -4.6924513     -682.45882     -891.54475     -1724.1429      0            
    237000  -139.98811      265.21679     -405.20489      323.5445       3198.2184      1.0177122      4455.7805     -140.81778     -4.6924513     -681.91526     -891.52508     -1714.2581      0            
    238000  -131.27716      239.51678     -370.79394      292.19242     -480.28909      1.0177122      4455.7805     -145.19574     -4.6924513     -678.45805     -891.50099     -1715.1548      0            
    239000  -112.61372      276.64622     -389.25994      337.48754      299.30957      1.0177122      4455.7805     -144.91676     -4.6924513     -681.01446     -891.40501     -1717.3362      0            
    240000  -135.09722      235.74125     -370.83847      287.58656      1628.8917      1.0177122      4455.7805     -145.91333     -4.6924513     -681.74772     -891.45814     -1719.1192      0            
    241000  -102.68034      273.56941     -376.24975      333.73406      2503.1183      1.0177122      4455.7805     -137.76991     -4.6924513     -680.18991     -891.49187     -1709.4517      0            
    242000  -121.90488      261.01881     -382.92369      318.42327      4806.446       1.0177122      4455.7805     -140.02837     -4.6924513     -679.91559     -891.5432      -1711.4872      0            
    243000  -155.47023      240.72399     -396.19422      293.66513      4745.5506      1.0177122      4455.7805     -142.43034     -4.6924513     -682.09633     -891.46013     -1715.9868      0            
    244000  -140.84758      248.75938     -389.60695      303.46769     -62.656936      1.0177122      4455.7805     -148.69573     -4.6924513     -677.70011     -891.4424      -1717.8382      0            
    245000  -136.10533      245.58653     -381.69187      299.59707      1474.9542      1.0177122      4455.7805     -150.06884     -4.6924513     -680.59104     -891.49558     -1722.1555      0            
    246000  -125.63513      241.36388     -366.99901      294.44575      249.69012      1.0177122      4455.7805     -143.12741     -4.6924513     -678.54733     -891.53476     -1713.2095      0            
    247000  -158.20633      259.65143     -417.85776      316.75518     -30.431899      1.0177122      4455.7805     -142.44425     -4.6924513     -680.32573     -891.35982     -1714.1298      0            
    248000  -140.21076      246.08871     -386.29947      300.20968      290.03356      1.0177122      4455.7805     -139.22686     -4.6924513     -681.2243      -891.53218     -1711.9833      0            
    249000  -166.59792      226.79122     -393.38913      276.6682       6093.715       1.0177122      4455.7805     -152.69449     -4.6924513     -680.85988     -891.52665     -1725.081       0            
    250000  -132.22636      245.90282     -378.12918      299.98291      3333.8726      1.0177122      4455.7805     -136.48579     -4.6924513     -680.31467     -891.64006     -1708.4405      0            
    251000  -135.36927      257.84706     -393.21633      314.55398     -1272.1881      1.0177122      4455.7805     -154.08752     -4.6924513     -680.1553      -891.38063     -1725.6234      0            
    252000  -141.67048      249.90051     -391.57099      304.85979      3548.0962      1.0177122      4455.7805     -143.58003     -4.6924513     -681.41489     -891.40897     -1716.4039      0            
    253000  -137.43673      226.62415     -364.06087      276.46438      3410.8337      1.0177122      4455.7805     -144.80811     -4.6924513     -679.08036     -891.4755      -1715.364       0            
    254000  -141.06916      245.04182     -386.11098      298.93256      939.11264      1.0177122      4455.7805     -146.86342     -4.6924513     -677.97593     -891.51389     -1716.3532      0            
    255000  -117.81794      272.72928     -390.54722      332.70917      5371.5603      1.0177122      4455.7805     -141.13894     -4.6924513     -681.88384     -891.62428     -1714.6471      0            
    256000  -137.601        249.74968     -387.35067      304.67578     -4446.8405      1.0177122      4455.7805     -146.69535     -4.6924513     -679.47119     -891.36897     -1717.5355      0            
    257000  -137.11391      252.54995     -389.66386      308.09191      3208.1551      1.0177122      4455.7805     -144.65282     -4.6924513     -678.98751     -891.49166     -1715.132       0            
    258000  -152.11974      230.85792     -382.97765      281.62926      4251.7394      1.0177122      4455.7805     -149.83459     -4.6924513     -682.6049      -891.38292     -1723.8224      0            
    259000  -116.41108      258.11019     -374.52127      314.87498      5066.3646      1.0177122      4455.7805     -135.03072     -4.6924513     -680.05093     -891.59958     -1706.6812      0            
    260000  -121.18662      256.15892     -377.34554      312.49458      2496.5055      1.0177122      4455.7805     -146.88258     -4.6924513     -681.0616      -891.40573     -1719.3499      0            
    261000  -117.67095      250.98823     -368.65918      306.18673      4816.1888      1.0177122      4455.7805     -138.54274     -4.6924513     -680.91534     -891.52609     -1710.9842      0            
    262000  -127.63958      260.61607     -388.25565      317.93197      4594.8448      1.0177122      4455.7805     -147.91665     -4.6924513     -678.7477      -891.48737     -1718.1517      0            
    263000  -149.8339       238.63099     -388.46488      291.11182      2101.1209      1.0177122      4455.7805     -142.21        -4.6924513     -685.33934     -891.57904     -1719.1284      0            
    264000  -125.07286      246.03657     -371.10944      300.14608      213.93139      1.0177122      4455.7805     -136.72517     -4.6924513     -681.83471     -891.49723     -1710.0571      0            
    265000  -135.33059      252.40718     -387.73777      307.91774      353.85353      1.0177122      4455.7805     -132.06063     -4.6924513     -679.82841     -891.35371     -1703.2427      0            
    266000  -144.9566       252.76591     -397.7225       308.35536      2518.5682      1.0177122      4455.7805     -145.96927     -4.6924513     -680.32283     -891.70003     -1717.9921      0            
    267000  -151.56616      240.86786     -392.43402      293.84064     -2208.8587      1.0177122      4455.7805     -147.66543     -4.6924513     -677.17146     -891.36647     -1716.2034      0            
    268000  -132.74447      257.61929     -390.36376      314.27612      3476.7912      1.0177122      4455.7805     -137.66345     -4.6924513     -681.40622     -891.45981     -1710.5295      0            
    269000  -136.19998      247.95009     -384.15007      302.48042     -2594.1024      1.0177122      4455.7805     -150.70518     -4.6924513     -677.53474     -891.41898     -1719.6589      0            
    270000  -150.10787      250.00095     -400.10882      304.98233      2879.8848      1.0177122      4455.7805     -147.93422     -4.6924513     -680.17772     -891.40431     -1719.5163      0            
    271000  -132.14806      254.85482     -387.00288      310.90368      779.80196      1.0177122      4455.7805     -143.2513      -4.6924513     -679.93653     -891.59052     -1714.7783      0            
    272000  -127.39638      249.49407     -376.89045      304.36396     -1550.5696      1.0177122      4455.7805     -145.38118     -4.6924513     -679.60931     -891.40679     -1716.3973      0            
    273000  -140.95033      252.77645     -393.72678      308.36822     -398.04761      1.0177122      4455.7805     -144.16427     -4.6924513     -678.89054     -891.55565     -1714.6105      0            
    274000  -134.16609      231.57091     -365.737        282.49906     -53.607283      1.0177122      4455.7805     -147.77875     -4.6924513     -680.71033     -891.38365     -1719.8727      0            
    275000  -180.51167      223.0699      -403.58157      272.12847      1715.7956      1.0177122      4455.7805     -145.62925     -4.6924513     -682.50353     -891.54613     -1719.6789      0            
    276000  -105.93809      265.64863     -371.58672      324.07131      358.51005      1.0177122      4455.7805     -135.02176     -4.6924513     -685.53096     -891.50187     -1712.0546      0            
    277000  -134.7771       255.38885     -390.16595      311.55516      2355.338       1.0177122      4455.7805     -149.47058     -4.6924513     -677.08767     -891.37787     -1717.9361      0            
    278000  -161.10045      227.72331     -388.82376      277.80528     -5001.0453      1.0177122      4455.7805     -147.13224     -4.6924513     -679.3381      -891.59855     -1718.0689      0            
    279000  -147.82455      262.99964     -410.82419      320.83974      550.93983      1.0177122      4455.7805     -144.7451      -4.6924513     -680.46226     -891.44551     -1716.6529      0            
    280000  -139.85528      251.98213     -391.83741      307.3992       2735.1501      1.0177122      4455.7805     -143.72892     -4.6924513     -678.78373     -891.38019     -1713.8928      0            
    281000  -132.80368      239.96399     -372.76767      292.73799     -1335.0196      1.0177122      4455.7805     -144.43111     -4.6924513     -680.07346     -891.49349     -1715.9981      0            
    282000  -108.81782      285.65784     -394.47567      348.48104      1268.6635      1.0177122      4455.7805     -146.51203     -4.6924513     -682.07072     -891.30557     -1719.8883      0            
    283000  -114.61332      266.33088     -380.9442       324.9036      -1730.6864      1.0177122      4455.7805     -145.51965     -4.6924513     -680.04379     -891.47829     -1717.0417      0            
    284000  -126.21684      250.03517     -376.252        305.02406      4799.1472      1.0177122      4455.7805     -146.9425      -4.6924513     -677.89082     -891.69905     -1716.5324      0            
    285000  -136.66087      236.77195     -373.43282      288.84393      2763.7502      1.0177122      4455.7805     -148.12056     -4.6924513     -679.79434     -891.28258     -1719.1975      0            
    286000  -141.53549      236.41025     -377.94574      288.4027       2243.8887      1.0177122      4455.7805     -147.42309     -4.6924513     -678.29121     -891.5542      -1717.2685      0            
    287000  -113.37472      265.0345      -378.40922      323.32212     -3262.5803      1.0177122      4455.7805     -144.52496     -4.6924513     -678.0126      -891.50725     -1714.0448      0            
    288000  -139.63849      241.02419     -380.66269      294.03135      2736.4695      1.0177122      4455.7805     -147.54665     -4.6924513     -683.33588     -891.69364     -1722.5762      0            
    289000  -142.84056      250.21586     -393.05642      305.2445       2565.0175      1.0177122      4455.7805     -152.94439     -4.6924513     -682.58975     -891.55939     -1727.0935      0            
    290000  -121.75321      251.96973     -373.72294      307.38409      3186.3074      1.0177122      4455.7805     -129.85834     -4.6924513     -684.25898     -891.55351     -1705.6708      0            
    291000  -169.80797      243.70939     -413.51736      297.30709      4338.406       1.0177122      4455.7805     -142.52456     -4.6924513     -679.78585     -891.54667     -1713.8571      0            
    292000  -113.83738      251.83377     -365.67114      307.21822      999.26717      1.0177122      4455.7805     -149.00021     -4.6924513     -679.49391     -891.60891     -1720.103       0            
    293000  -124.58782      275.73195     -400.31977      336.3722       299.89027      1.0177122      4455.7805     -148.88927     -4.6924513     -679.99221     -891.47623     -1720.3577      0            
    294000  -146.27824      230.98151     -377.25975      281.78003      2458.416       1.0177122      4455.7805     -138.32143     -4.6924513     -680.64396     -891.49232     -1710.4577      0            
    295000  -113.51849      257.82624     -371.34474      314.52859      1708.3356      1.0177122      4455.7805     -136.32439     -4.6924513     -681.14814     -891.51469     -1708.9872      0            
    296000  -151.75661      247.17554     -398.93215      301.53553      845.76327      1.0177122      4455.7805     -140.74147     -4.6924513     -676.26026     -891.56795     -1708.5697      0            
    297000  -123.17062      260.61556     -383.78618      317.93135      3185.4551      1.0177122      4455.7805     -137.40355     -4.6924513     -678.62297     -891.46106     -1707.4876      0            
    298000  -160.74883      228.24361     -388.99243      278.44         1563.3356      1.0177122      4455.7805     -146.09769     -4.6924513     -677.8366      -891.52067     -1715.455       0            
    299000  -141.11531      261.9806      -403.09591      319.59659     -119.55651      1.0177122      4455.7805     -146.86417     -4.6924513     -680.31721     -891.39577     -1718.5771      0            
    300000  -127.15178      258.72675     -385.87853      315.62713      2230.2823      1.0177122      4455.7805     -140.6293      -4.6924513     -677.52324     -891.43847     -1709.591       0            
    301000  -114.87741      250.59103     -365.46843      305.70217      2633.4735      1.0177122      4455.7805     -138.57759     -4.6924513     -682.67477     -891.6266      -1712.879       0            
    302000  -148.64491      237.47622     -386.12113      289.70309     -3990.7564      1.0177122      4455.7805     -149.68027     -4.6924513     -679.30977     -891.36739     -1720.3574      0            
    303000  -130.58504      254.36799     -384.95304      310.30978      4499.8926      1.0177122      4455.7805     -138.52684     -4.6924513     -680.23028     -891.52022     -1710.2773      0            
    304000  -153.52168      244.29961     -397.82129      298.02712     -3985.5319      1.0177122      4455.7805     -141.45467     -4.6924513     -677.56141     -891.42264     -1710.4387      0            
    305000  -121.3953       254.69455     -376.08985      310.70816      332.44454      1.0177122      4455.7805     -149.76555     -4.6924513     -678.76459     -891.40904     -1719.9392      0            
    306000  -126.84796      246.08488     -372.93283      300.20501      1987.4393      1.0177122      4455.7805     -137.49814     -4.6924513     -681.78447     -891.38128     -1710.6639      0            
    307000  -146.99141      245.92169     -392.9131       300.00593      2759.0194      1.0177122      4455.7805     -140.2924      -4.6924513     -678.15373     -891.57762     -1710.0238      0            
    308000  -130.29692      264.81272     -395.10965      323.05157     -3023.0445      1.0177122      4455.7805     -149.27686     -4.6924513     -680.83221     -891.53628     -1721.6453      0            
    309000  -142.52742      251.12179     -393.64921      306.34966     -1630.7484      1.0177122      4455.7805     -150.40563     -4.6924513     -678.8972      -891.52065     -1720.8235      0            
    310000  -140.78278      248.53043     -389.31321      303.18839     -628.77642      1.0177122      4455.7805     -153.04923     -4.6924513     -681.52868     -891.4937      -1726.0716      0            
    311000  -141.89328      250.45234     -392.34562      305.53298     -4308.3158      1.0177122      4455.7805     -144.30313     -4.6924513     -676.54597     -891.3689      -1712.218       0            
    312000  -129.07249      250.34972     -379.42222      305.4078      -1554.1658      1.0177122      4455.7805     -142.61323     -4.6924513     -680.40274     -891.54297     -1714.5589      0            
    313000  -145.5137       242.38299     -387.89669      295.68898      1517.8415      1.0177122      4455.7805     -143.94662     -4.6924513     -680.30228     -891.5191      -1715.768       0            
    314000  -141.04828      243.81766     -384.86594      297.43917      3827.7126      1.0177122      4455.7805     -139.52048     -4.6924513     -681.5219      -891.40923     -1712.4516      0            
    315000  -132.99858      250.48063     -383.47921      305.56749      359.79533      1.0177122      4455.7805     -142.20565     -4.6924513     -682.56135     -891.5508      -1716.3178      0            
    316000  -140.23068      249.75388     -389.98456      304.68091      5480.3415      1.0177122      4455.7805     -138.97453     -4.6924513     -681.71807     -891.45923     -1712.1518      0            
    317000  -129.3628       246.64178     -376.00458      300.88439     -5756.6782      1.0177122      4455.7805     -155.26527     -4.6924513     -678.549       -891.49022     -1725.3045      0            
    318000  -110.47302      268.74413     -379.21715      327.84759     -2088.4168      1.0177122      4455.7805     -144.53482     -4.6924513     -679.46328     -891.47688     -1715.475       0            
    319000  -90.894992      267.95587     -358.85086      326.88597      2114.3054      1.0177122      4455.7805     -139.44841     -4.6924513     -682.12647     -891.51069     -1713.0856      0            
    320000  -132.74656      251.70169     -384.44825      307.0571      -2215.3203      1.0177122      4455.7805     -147.24286     -4.6924513     -681.4198      -891.40051     -1720.0632      0            
    321000  -163.16941      253.19839     -416.3678       308.88295      4398.9608      1.0177122      4455.7805     -147.88594     -4.6924513     -676.60699     -891.52311     -1716.016       0            
    322000  -111.01465      259.6718      -370.68645      316.78002      1383.3326      1.0177122      4455.7805     -141.74526     -4.6924513     -681.78631     -891.37118     -1714.9027      0            
    323000  -119.44747      251.57971     -371.02717      306.90829     -623.18832      1.0177122      4455.7805     -148.18752     -4.6924513     -679.40588     -891.49962     -1719.093       0            
    324000  -114.88801      265.43471     -380.32271      323.81034      2476.2443      1.0177122      4455.7805     -137.33595     -4.6924513     -681.68896     -891.39581     -1710.4207      0            
    325000  -148.19301      241.52747     -389.72048      294.64531     -6002.7804      1.0177122      4455.7805     -152.13681     -4.6924513     -677.1028      -891.55645     -1720.7961      0            
    326000  -151.01768      239.52485     -390.54253      292.20227      5709.8733      1.0177122      4455.7805     -143.03209     -4.6924513     -684.20172     -891.44349     -1718.6773      0            
    327000  -155.1674       235.59138     -390.75878      287.40373      1336.1608      1.0177122      4455.7805     -160.62422     -4.6924513     -678.35063     -891.23245     -1730.2073      0            
    328000  -152.14156      227.87292     -380.01448      277.9878       1448.3692      1.0177122      4455.7805     -139.54103     -4.6924513     -680.9858      -891.32815     -1711.855       0            
    329000  -133.04152      241.66475     -374.70627      294.81278      4176.5008      1.0177122      4455.7805     -138.44231     -4.6924513     -686.5539      -891.45305     -1716.4493      0            
    330000  -154.93048      234.83775     -389.76824      286.48436     -385.34862      1.0177122      4455.7805     -145.76718     -4.6924513     -681.14908     -891.60864     -1718.5249      0            
    331000  -159.92161      238.15651     -398.07811      290.53299     -2745.1296      1.0177122      4455.7805     -141.08735     -4.6924513     -679.53883     -891.56193     -1712.1881      0            
    332000  -130.3221       243.03648     -373.35857      296.48619      4401.2959      1.0177122      4455.7805     -147.35338     -4.6924513     -680.53381     -891.49138     -1719.3786      0            
    333000  -141.51986      241.70588     -383.22574      294.86296      4141.5198      1.0177122      4455.7805     -144.72349     -4.6924513     -683.28322     -891.55505     -1719.5617      0            
    334000  -121.39416      261.81494     -383.2091       319.3945       4147.8132      1.0177122      4455.7805     -148.60687     -4.6924513     -679.89703     -891.51516     -1720.0191      0            
    335000  -156.74091      236.86134     -393.60225      288.95299      1192.0605      1.0177122      4455.7805     -141.34614     -4.6924513     -679.58571     -891.51754     -1712.4494      0            
    336000  -126.98521      262.79941     -389.78462      320.59547      6205.238       1.0177122      4455.7805     -140.28848     -4.6924513     -680.77418     -891.50211     -1712.5648      0            
    337000  -135.0523       248.00863     -383.06092      302.55184     -2041.9757      1.0177122      4455.7805     -147.46057     -4.6924513     -679.22849     -891.39636     -1718.0854      0            
    338000  -150.34931      239.99903     -390.34833      292.78073     -2347.9716      1.0177122      4455.7805     -146.20996     -4.6924513     -679.52714     -891.52925     -1717.2664      0            
    339000  -120.32666      266.62309     -386.94975      325.26008      1719.6636      1.0177122      4455.7805     -150.37272     -4.6924513     -683.08082     -891.49918     -1724.9527      0            
    340000  -128.1708       265.01755     -393.18834      323.30144      2757.8807      1.0177122      4455.7805     -150.19291     -4.6924513     -676.98509     -891.44323     -1718.6212      0            
    341000  -154.85708      245.19565     -400.05273      299.12021      2219.648       1.0177122      4455.7805     -143.86936     -4.6924513     -679.13802     -891.38949     -1714.3969      0            
    342000  -161.2699       231.00014     -392.27004      281.80276      292.74428      1.0177122      4455.7805     -140.62697     -4.6924513     -683.709       -891.40613     -1715.7421      0            
    343000  -161.08759      240.82816     -401.91575      293.7922       81.174398      1.0177122      4455.7805     -150.33051     -4.6924513     -679.1856      -891.44201     -1720.9581      0            
    344000  -134.91292      245.6904      -380.60332      299.72378      2729.8198      1.0177122      4455.7805     -142.7888      -4.6924513     -678.09874     -891.63933     -1712.5269      0            
    345000  -102.62043      267.25341     -369.87384      326.02902      1903.5441      1.0177122      4455.7805     -147.57744     -4.6924513     -679.14582     -891.4792      -1718.2024      0            
    346000  -129.83594      260.30953     -390.14547      317.55801      5247.0239      1.0177122      4455.7805     -140.30469     -4.6924513     -682.59454     -891.5568      -1714.456       0            
    347000  -142.46491      242.20309     -384.668        295.46951      3072.8456      1.0177122      4455.7805     -151.92696     -4.6924513     -679.26452     -891.42813     -1722.6196      0            
    348000  -160.38893      243.53306     -403.92199      297.09198     -1614.7684      1.0177122      4455.7805     -147.22867     -4.6924513     -678.89033     -891.49865     -1717.6177      0            
    349000  -136.68858      234.49612     -371.18471      286.0676       1134.4126      1.0177122      4455.7805     -148.83127     -4.6924513     -678.05441     -891.78421     -1718.6699      0            
    350000  -121.22192      262.94725     -384.16917      320.77583      1377.4262      1.0177122      4455.7805     -149.26989     -4.6924513     -678.26486     -891.42917     -1718.9639      0            
    351000  -144.75127      238.06126     -382.81253      290.4168       1838.9632      1.0177122      4455.7805     -150.25038     -4.6924513     -680.56389     -891.4278      -1722.2421      0            
    352000  -115.25025      263.69796     -378.94821      321.69164     -662.20324      1.0177122      4455.7805     -134.34654     -4.6924513     -680.1252      -891.35647     -1705.8282      0            
    353000  -108.25479      263.38044     -371.63523      321.30429      3571.3025      1.0177122      4455.7805     -134.07336     -4.6924513     -683.41281     -891.41423     -1708.9004      0            
    354000  -114.3621       258.30783     -372.66994      315.11609     -97.992919      1.0177122      4455.7805     -140.04534     -4.6924513     -678.84224     -891.57639     -1710.464       0            
[...]
   1190000  -186.08322      241.21675     -427.29997      294.26625      70.566354      1.0177122      4455.7805     -154.57        -4.6924513     -682.04208     -891.49869     -1728.1108      34.288744    
   1191000  -165.74092      235.16454     -400.90546      286.88301     -326.41436      1.0177122      4455.7805     -145.06972     -4.6924513     -678.38448     -891.55817     -1715.0124      39.126066    
   1192000  -163.72371      246.75529     -410.479        301.02285     -3901.0042      1.0177122      4455.7805     -151.80036     -4.6924513     -678.10505     -891.40191     -1721.3073      32.445915    
   1193000  -175.7638       237.32278     -413.08658      289.51591     -1446.9165      1.0177122      4455.7805     -149.21685     -4.6924513     -680.71477     -891.48049     -1721.4121      28.253482    
   1194000  -176.16883      221.84205     -398.01088      270.63058      639.76768      1.0177122      4455.7805     -145.8755      -4.6924513     -681.09557     -891.36332     -1718.3344      27.095081    
   1195000  -179.69078      239.5466      -419.23738      292.22879     -1350.2712      1.0177122      4455.7805     -149.84849     -4.6924513     -677.11915     -891.49315     -1718.4608      29.064766    
   1196000  -159.70227      254.98766     -414.68993      311.06573      1261.1862      1.0177122      4455.7805     -146.85699     -4.6924513     -681.60767     -891.45671     -1719.9214      27.39444     
   1197000  -164.53828      272.89301     -437.43129      332.90891      2687.8119      1.0177122      4455.7805     -152.33945     -4.6924513     -681.44229     -891.56213     -1725.3439      32.713649    
   1198000  -171.35025      257.29065     -428.64089      313.8752      -2542.4968      1.0177122      4455.7805     -148.61128     -4.6924513     -680.38358     -891.54169     -1720.5366      31.961013    
   1199000  -177.29768      252.92571     -430.22339      308.55031      4345.3631      1.0177122      4455.7805     -143.48785     -4.6924513     -678.70257     -891.42227     -1713.6127      27.273906    
   1200000  -152.78187      264.21787     -416.99974      322.32589     -1444.9675      1.0177122      4455.7805     -151.62477     -4.6924513     -676.67704     -891.34255     -1719.6444      35.419253    
   1201000  -141.41101      250.92579     -392.3368       306.11055      1621.8342      1.0177122      4455.7805     -153.33909     -4.6924513     -680.12414     -891.48836     -1724.9516      37.341908    
   1202000  -147.46761      269.13301     -416.60062      328.32199     -5067.8184      1.0177122      4455.7805     -145.1523      -4.6924513     -678.29853     -891.51575     -1714.9666      27.469451    
   1203000  -152.15882      256.69168     -408.85051      313.14451      1402.0612      1.0177122      4455.7805     -141.9457      -4.6924513     -681.93925     -891.46148     -1715.3464      32.244751    
   1204000  -164.68307      255.22485     -419.90793      311.35509     -367.06018      1.0177122      4455.7805     -145.01185     -4.6924513     -681.93601     -891.42001     -1718.3679      27.470883    
   1205000  -200.574        245.75405     -446.32804      299.80142      2217.8021      1.0177122      4455.7805     -148.35936     -4.6924513     -681.50867     -891.49688     -1721.3649      27.063868    
   1206000  -154.61695      264.54821     -419.16516      322.72888     -934.54423      1.0177122      4455.7805     -153.50282     -4.6924513     -679.53534     -891.63841     -1724.6766      31.166178    
   1207000  -158.28955      242.90078     -401.19034      296.32065     -973.26454      1.0177122      4455.7805     -140.05679     -4.6924513     -680.8431      -891.44838     -1712.3483      34.035027    
   1208000  -171.67061      242.69197     -414.36258      296.06591     -2442.449       1.0177122      4455.7805     -157.12047     -4.6924513     -677.22163     -891.56475     -1725.9069      33.898885    
   1209000  -162.00665      226.98642     -388.99307      276.90633      6768.6237      1.0177122      4455.7805     -137.80528     -4.6924513     -684.21713     -891.55324     -1713.5756      29.625241    
   1210000  -186.13384      241.86292     -427.99676      295.05453     -1168.1069      1.0177122      4455.7805     -143.74281     -4.6924513     -681.97728     -891.41922     -1717.1393      29.100085    
   1211000  -198.77794      232.57423     -431.35218      283.72304      791.96518      1.0177122      4455.7805     -146.76708     -4.6924513     -682.2043      -891.59394     -1720.5653      30.145357    
   1212000  -164.48636      261.4813      -425.96766      318.98748      2703.4627      1.0177122      4455.7805     -148.32069     -4.6924513     -681.06572     -891.44935     -1720.8358      27.439964    
   1213000  -152.20723      246.59965     -398.80688      300.83299     -394.84702      1.0177122      4455.7805     -138.57645     -4.6924513     -681.89648     -891.54337     -1712.0163      33.928188    
   1214000  -206.63676      220.48276     -427.11952      268.97235     -945.39439      1.0177122      4455.7805     -146.40924     -4.6924513     -679.21877     -891.50267     -1717.1307      31.856489    
   1215000  -158.71732      243.46223     -402.17955      297.00557      2194.9464      1.0177122      4455.7805     -142.06429     -4.6924513     -679.5253      -891.53213     -1713.1217      37.438062    
   1216000  -162.84507      244.40447     -407.24954      298.15504      938.23446      1.0177122      4455.7805     -148.43079     -4.6924513     -680.66118     -891.53606     -1720.628       34.20458     
   1217000  -182.11199      254.23923     -436.35122      310.1527      -4098.5787      1.0177122      4455.7805     -152.71661     -4.6924513     -679.04664     -891.40596     -1723.1692      30.312913    
   1218000  -150.34245      254.37248     -404.71493      310.31526     -821.81568      1.0177122      4455.7805     -143.59801     -4.6924513     -682.41008     -891.43442     -1717.4425      39.500502    
   1219000  -162.39828      243.12628     -405.52456      296.59575     -611.4267       1.0177122      4455.7805     -148.79634     -4.6924513     -681.45665     -891.44138     -1721.6944      36.03808     
   1220000  -141.53394      267.86608     -409.40002      326.77643      2574.7027      1.0177122      4455.7805     -152.25195     -4.6924513     -681.65498     -891.45623     -1725.3632      30.884355    
   1221000  -170.47127      253.92183     -424.39309      309.76549      2493.5373      1.0177122      4455.7805     -149.34758     -4.6924513     -679.73059     -891.50695     -1720.5851      29.712907    
   1222000  -176.14879      241.18988     -417.33867      294.23347      561.53839      1.0177122      4455.7805     -148.27449     -4.6924513     -682.06806     -891.58971     -1721.9322      33.111959    
   1223000  -144.7902       272.12196     -416.91215      331.96828      1625.1676      1.0177122      4455.7805     -156.89307     -4.6924513     -679.33931     -891.40504     -1727.6374      30.110872    
   1224000  -159.97453      251.07357     -411.0481       306.29084      730.04328      1.0177122      4455.7805     -141.59506     -4.6924513     -679.6724      -891.36098     -1712.6284      34.954573    
   1225000  -161.08624      248.63964     -409.72588      303.32162      7380.612       1.0177122      4455.7805     -151.69496     -4.6924513     -679.92488     -891.4466      -1723.0664      33.604919    
   1226000  -193.35061      239.03764     -432.38826      291.60791      1454.6897      1.0177122      4455.7805     -147.91731     -4.6924513     -682.50514     -891.56033     -1721.9828      33.172489    
   1227000  -165.8786       252.70658     -418.58518      308.28298      2888.5508      1.0177122      4455.7805     -144.65087     -4.6924513     -682.41613     -891.44545     -1718.5125      37.942185    
   1228000  -204.80367      229.17384     -433.97751      279.57482      2757.0667      1.0177122      4455.7805     -150.26677     -4.6924513     -680.41541     -891.43305     -1722.1152      29.627918    
   1229000  -149.87852      254.92749     -404.80602      310.99233     -463.88542      1.0177122      4455.7805     -142.4713      -4.6924513     -682.14867     -891.60469     -1716.2247      31.192378    
   1230000  -167.68023      234.07382     -401.75405      285.55242      3647.2868      1.0177122      4455.7805     -147.8341      -4.6924513     -680.75614     -891.40167     -1719.9919      29.268417    
   1231000  -179.52518      244.63097     -424.15615      298.43135      1594.5163      1.0177122      4455.7805     -154.61986     -4.6924513     -679.57516     -891.3864      -1725.5814      31.924327    
   1232000  -151.31064      255.48666     -406.7973       311.67447      2775.5398      1.0177122      4455.7805     -145.39944     -4.6924513     -683.40858     -891.61125     -1720.4193      30.55309     
   1233000  -179.32615      255.44437     -434.77051      311.62288      5779.9919      1.0177122      4455.7805     -150.55288     -4.6924513     -681.15014     -891.52191     -1723.2249      27.094024    
   1234000  -157.92378      256.39119     -414.31496      312.77793      3290.4871      1.0177122      4455.7805     -153.9413      -4.6924513     -685.76266     -891.45492     -1731.1589      32.422274    
   1235000  -156.75772      248.59838     -405.35609      303.27129      987.4099       1.0177122      4455.7805     -148.89246     -4.6924513     -680.96118     -891.62432     -1721.4779      30.726991    
   1236000  -149.36727      259.49728     -408.86455      316.56713      1720.2318      1.0177122      4455.7805     -151.02209     -4.6924513     -679.81007     -891.5874      -1722.4196      29.210385    
   1237000  -167.04926      241.92564     -408.9749       295.13105      1346.8485      1.0177122      4455.7805     -148.82242     -4.6924513     -682.08516     -891.52136     -1722.4289      29.164221    
   1238000  -153.37266      262.42865     -415.80131      320.14318     -506.59938      1.0177122      4455.7805     -155.91279     -4.6924513     -681.57873     -891.45743     -1728.9489      30.517947    
   1239000  -155.66183      246.8934      -402.55523      301.19134      3765.7586      1.0177122      4455.7805     -144.78778     -4.6924513     -682.29902     -891.48657     -1718.5734      31.393327    
   1240000  -149.32311      260.17345     -409.49657      317.392        2549.8081      1.0177122      4455.7805     -147.45325     -4.6924513     -680.35382     -891.45024     -1719.2573      34.529433    
   1241000  -160.72778      259.19015     -419.91793      316.19246      1079.57        1.0177122      4455.7805     -154.43609     -4.6924513     -682.36621     -891.35248     -1728.1548      25.013984    
   1242000  -147.31101      270.69727     -418.00828      330.23027      4592.8409      1.0177122      4455.7805     -155.2258      -4.6924513     -679.88852     -891.45641     -1726.5707      32.575677    
   1243000  -142.61485      271.40413     -414.01899      331.09259     -1036.4356      1.0177122      4455.7805     -143.94292     -4.6924513     -680.16148     -891.47182     -1715.5762      34.674622    
   1244000  -153.02148      255.97597     -408.99746      312.2714       333.31358      1.0177122      4455.7805     -145.07813     -4.6924513     -679.78471     -891.52514     -1716.388       29.115129    
   1245000  -140.44048      268.9074      -409.34788      328.04677      1393.352       1.0177122      4455.7805     -154.29913     -4.6924513     -679.9171      -891.42027     -1725.6365      26.695481    
   1246000  -185.97245      217.5468      -403.51925      265.39071     -1398.8244      1.0177122      4455.7805     -152.94195     -4.6924513     -680.54937     -891.45243     -1724.9438      30.324597    
   1247000  -172.80377      239.7796      -412.58337      292.51304      2374.714       1.0177122      4455.7805     -140.47843     -4.6924513     -682.96122     -891.47976     -1714.9194      29.891648    
   1248000  -129.78845      278.03242     -407.82087      339.1786       1156.267       1.0177122      4455.7805     -148.3607      -4.6924513     -681.11484     -891.43631     -1720.9119      26.97669     
   1249000  -154.7613       246.51024     -401.27155      300.72392      4008.3481      1.0177122      4455.7805     -145.663       -4.6924513     -680.67533     -891.58366     -1717.922       29.769041    
   1250000  -177.80899      245.25211     -423.0611       299.18909      3176.2399      1.0177122      4455.7805     -147.57164     -4.6924513     -682.97932     -891.44783     -1721.9988      29.928403    
   1251000  -144.70432      260.74773     -405.45205      318.09258      5361.5648      1.0177122      4455.7805     -144.06535     -4.6924513     -680.19964     -891.56949     -1715.8345      26.421808    
   1252000  -157.70758      246.391       -404.09858      300.57845      2784.2731      1.0177122      4455.7805     -144.60272     -4.6924513     -679.84618     -891.72296     -1716.1719      33.428691    
   1253000  -163.30485      262.0239      -425.32875      319.64941      3219.6533      1.0177122      4455.7805     -147.7317      -4.6924513     -682.12776     -891.55716     -1721.4166      29.396619    
   1254000  -189.55211      238.76979     -428.32189      291.28115      721.97591      1.0177122      4455.7805     -146.24669     -4.6924513     -680.51668     -891.47834     -1718.2417      32.533042    
   1255000  -176.89987      251.39391     -428.29377      306.68162     -5967.9126      1.0177122      4455.7805     -148.36232     -4.6924513     -676.56603     -891.50423     -1716.4326      26.485205    
   1256000  -155.72395      238.88052     -394.60447      291.41623     -1090.391       1.0177122      4455.7805     -142.70042     -4.6924513     -680.23191     -891.53364     -1714.466       33.7216      
   1257000  -166.06098      250.68763     -416.74861      305.82002      726.48355      1.0177122      4455.7805     -145.69561     -4.6924513     -683.02846     -891.55969     -1720.2838      27.266593    
   1258000  -166.33375      237.90634     -404.24009      290.22781      3086.4862      1.0177122      4455.7805     -143.82229     -4.6924513     -681.66366     -891.44163     -1716.9276      29.621059    
   1259000  -125.75026      280.92359     -406.67385      342.70561     -5348.9442      1.0177122      4455.7805     -141.65914     -4.6924513     -679.36469     -891.51401     -1712.5378      29.213215    
   1260000  -159.50759      232.3824      -391.88998      283.48901      5598.8472      1.0177122      4455.7805     -150.69083     -4.6924513     -681.70197     -891.37666     -1723.7695      34.412074    
   1261000  -157.87483      249.11342     -406.98825      303.8996       2755.8592      1.0177122      4455.7805     -144.19738     -4.6924513     -681.27085     -891.45019     -1716.9184      28.962086    
   1262000  -168.77227      262.00869     -430.78096      319.63086      2301.5806      1.0177122      4455.7805     -153.48191     -4.6924513     -678.92606     -891.39868     -1723.8066      27.850022    
   1263000  -141.44841      266.4493      -407.89771      325.04806     -800.92793      1.0177122      4455.7805     -147.50602     -4.6924513     -681.02618     -891.52637     -1720.0586      33.297119    
   1264000  -160.07122      260.61145     -420.68267      317.92633     -1690.8791      1.0177122      4455.7805     -149.71796     -4.6924513     -676.82858     -891.44414     -1717.9907      27.59606     
   1265000  -163.58123      239.47619     -403.05742      292.1429       2006.8943      1.0177122      4455.7805     -148.30924     -4.6924513     -681.45803     -891.57368     -1721.341       33.437113    
   1266000  -165.83631      255.60013     -421.43644      311.8129       3834.451       1.0177122      4455.7805     -144.97975     -4.6924513     -683.42696     -891.57415     -1719.9809      30.793909    
   1267000  -141.95339      257.388       -399.34139      313.99396      698.3098       1.0177122      4455.7805     -141.13295     -4.6924513     -682.74984     -891.57652     -1715.4593      34.520247    
   1268000  -170.68212      259.14909     -429.83121      316.14236      1972.9179      1.0177122      4455.7805     -148.13738     -4.6924513     -681.45057     -891.51194     -1721.0999      26.814049    
   1269000  -169.38041      239.84237     -409.22278      292.58962     -2882.3872      1.0177122      4455.7805     -144.92162     -4.6924513     -678.75041     -891.5781      -1715.2501      30.903355    
   1270000  -138.8799       252.77526     -391.65516      308.36677     -1054.9838      1.0177122      4455.7805     -150.09297     -4.6924513     -678.92313     -891.45775     -1720.4738      33.402112    
   1271000  -174.30736      249.0451      -423.35246      303.81625      221.4405       1.0177122      4455.7805     -153.59599     -4.6924513     -681.33982     -891.35997     -1726.2958      27.970586    
   1272000  -156.29518      261.41117     -417.70635      318.90192      3098.7203      1.0177122      4455.7805     -148.32367     -4.6924513     -681.92857     -891.5748      -1721.827       30.981165    
   1273000  -151.26066      266.38939     -417.65005      324.97498      498.48339      1.0177122      4455.7805     -153.89605     -4.6924513     -679.93388     -891.49702     -1725.327       27.441788    
   1274000  -185.01981      242.7468      -427.76661      296.13281      2512.0433      1.0177122      4455.7805     -142.60001     -4.6924513     -679.84498     -891.45993     -1713.9049      33.716705    
   1275000  -166.12492      252.83469     -418.95962      308.43927      3589.2854      1.0177122      4455.7805     -147.40054     -4.6924513     -681.19033     -891.57305     -1720.1639      26.830651    
   1276000  -195.54104      243.2833      -438.82434      296.78729     -2203.7944      1.0177122      4455.7805     -155.11136     -4.6924513     -680.56166     -891.46088     -1727.1339      25.827044    
   1277000  -145.99829      248.78074     -394.77903      303.49376      3326.4767      1.0177122      4455.7805     -144.30412     -4.6924513     -681.55782     -891.66942     -1717.5314      32.231293    
   1278000  -123.21677      273.29524     -396.51201      333.3996       1971.0392      1.0177122      4455.7805     -140.91017     -4.6924513     -680.60004     -891.64163     -1713.1518      28.977457    
   1279000  -182.58213      226.59204     -409.17416      276.42521     -5874.5388      1.0177122      4455.7805     -144.76009     -4.6924513     -681.72339     -891.57073     -1718.0542      28.792761    
   1280000  -175.82079      254.77991     -430.60071      310.81229      4720.7713      1.0177122      4455.7805     -150.01586     -4.6924513     -679.88825     -891.47889     -1721.383       27.060296    
   1281000  -139.61976      254.55136     -394.17112      310.53348      1286.119       1.0177122      4455.7805     -147.67801     -4.6924513     -678.34103     -891.55722     -1717.5762      33.325316    
   1282000  -145.80456      244.41286     -390.21742      298.16527     -2584.9218      1.0177122      4455.7805     -152.40476     -4.6924513     -680.38162     -891.51561     -1724.302       27.633441    
   1283000  -162.98501      251.08573     -414.07074      306.30567      3325.2054      1.0177122      4455.7805     -152.11414     -4.6924513     -680.2441      -891.42834     -1723.7866      27.361509    
   1284000  -146.38496      271.06169     -417.44666      330.67484     -90.572287      1.0177122      4455.7805     -148.77477     -4.6924513     -679.20633     -891.38086     -1719.362       31.936247    
   1285000  -133.47382      252.78887     -386.26269      308.38337      3938.7027      1.0177122      4455.7805     -149.30877     -4.6924513     -684.22806     -891.44636     -1724.9832      28.55621     
   1286000  -176.41198      245.65026