LAMMPS data file via write_data, version 28 Mar 2023, timestep = 746

456 atoms
7 atom types
516 bonds
8 bond types
972 angles
12 angle types
1164 dihedrals
4 dihedral types
648 impropers
1 improper types

1.2251429725545246 27.37885702744557 xlo xhi
0.9187278927392177 27.72939210726081 ylo yhi
1.2891467652763398 27.37096523472395 zlo zhi
0.3344580872618437 -0.609592180615538 0.4003102200582782 xy xz yz

Masses

1 12.0107
2 1.00794
3 114.818
4 15.9994
5 12.0107
6 1.00794
7 14.0067

PairIJ Coeffs # lj/cut/coul/long

1 1 0.105 3.43085 12.5
1 2 0.0679706 3.00099 12.5
1 3 0.250789 3.70347 12.5
1 4 0.0793725 3.2745 12.5
1 5 0.105 3.43085 12.5
1 6 0.0679706 3.00099 12.5
1 7 0.0851176 3.34577 12.5
2 2 0.044 2.57113 12.5
2 3 0.162345 3.27361 12.5
2 4 0.0513809 2.84464 12.5
2 5 0.0679706 3.00099 12.5
2 6 0.044 2.57113 12.5
2 7 0.0550999 2.91591 12.5
3 3 0.599 3.97608 12.5
3 4 0.189578 3.54711 12.5
3 5 0.250789 3.70347 12.5
3 6 0.162345 3.27361 12.5
3 7 0.2033 3.61838 12.5
4 4 0.06 3.11815 12.5
4 5 0.0793725 3.2745 12.5
4 6 0.0513809 2.84464 12.5
4 7 0.0643428 3.18942 12.5
5 5 0.105 3.43085 12.5
5 6 0.0679706 3.00099 12.5
5 7 0.0851176 3.34577 12.5
6 6 0.044 2.57113 12.5
6 7 0.0550999 2.91591 12.5
7 7 0.069 3.26069 12.5

Bond Coeffs # harmonic

1 462.655 1.37926
2 391.67 1.458
3 357.44 1.08142
4 137.092 2.25927
5 714.557 1.26901
6 331.069 1.1094
7 528.635 1.45107
8 527.945 1.04442

Dihedral Coeffs # harmonic

1 3.36856 -1 2
2 1.25 -1 2
3 6.73711 -1 2
4 0.05425 1 3

Atoms # full

1 444 1 0.0468 11.95034436639211 20.308537895563983 3.626436898243419 0 0 0
2 444 1 -0.1278 10.645371654200986 19.792385815384332 3.5858466777620004 0 0 0
3 444 2 0.1121 10.359427290003289 19.10348815144785 2.7998236536364107 0 0 0
4 444 1 0.0468 4.403050703088987 17.864289871845564 9.544904611572848 0 0 0
5 444 1 -0.1278 4.492236471780582 18.262363769414133 8.197280234273306 0 0 0
6 444 2 0.1121 3.8377212380271892 17.831254296420326 7.45037626928919 0 0 0
7 444 1 -0.1278 5.262535456428799 18.453716932508673 10.487864439141626 0 0 0
8 444 2 0.1121 5.225971631010715 18.154014243650767 11.5284587203277 0 0 0
9 444 1 -0.1318 6.2132927795596 19.397625962718788 10.081899079184398 0 0 0
10 444 2 0.1078 6.89278376310713 19.81201989720189 10.81747497888876 0 0 0
11 444 1 0.022 6.320605830014677 19.766720407337438 8.728381223053127 0 0 0
12 444 1 -0.1318 5.441458781176553 19.20113074933508 7.794413947306615 0 0 0
13 444 2 0.1078 5.491336257967028 19.490766679374005 6.751379212502445 0 0 0
14 444 1 0.0468 9.694928824173026 25.886521849012336 11.376663085317256 0 0 0
15 444 1 -0.1278 8.339585982658756 25.69288678219719 11.047884189108556 0 0 0
16 444 2 0.1121 7.566299730881846 26.263731539446475 11.55088075767137 0 0 0
17 444 1 -0.1318 7.968784752145855 24.729892805312467 10.1081590525666 0 0 0
18 444 2 0.1078 6.918442706739593 24.580972745025495 9.890303752757303 0 0 0
19 444 1 0.022 8.946224048626592 23.946725091737264 9.478057441291037 0 0 0
20 444 1 -0.1318 10.303625567974592 24.17690304424837 9.765817229219708 0 0 0
21 444 2 0.1078 11.075569368527004 23.57107115940968 9.30698649916627 0 0 0
22 444 1 -0.1278 10.675268113786814 25.1389169838914 10.705361707555122 0 0 0
23 444 2 0.1121 11.724468619536442 25.267579311676847 10.944923266785592 0 0 0
24 444 1 -0.1278 12.308067021839648 21.189664107212668 4.654342641411666 0 0 0
25 444 2 0.1121 13.322378013904522 21.572747044545522 4.71640952814443 0 0 0
26 444 1 -0.1318 11.39651808446794 21.51995397765724 5.650614786753003 0 0 0
27 444 2 0.1078 11.752093540902784 22.131154943525107 6.468765881324735 0 0 0
28 444 1 0.022 10.076839203036736 21.026713958121466 5.61691777752605 0 0 0
29 444 1 -0.1318 9.70745524964441 20.17033498495548 4.5579838510781805 0 0 0
30 444 2 0.1078 8.69933919569564 19.787489427650197 4.480607703460914 0 0 0
31 444 1 -0.0339 7.351862440650598 20.732572980576926 8.281657830832764 0 0 0
32 444 1 -0.0761 7.580452332999303 21.907578248861615 9.010953343847206 0 0 0
33 444 2 0.1029 7.016426876751428 22.097824122295037 9.916227460368821 0 0 0
34 444 1 -0.0339 8.563294024944172 22.818428905935413 8.602658833757094 0 0 0
35 444 1 -0.0761 9.280139742097411 22.574422150361507 7.42672089351804 0 0 0
36 444 2 0.1029 9.988351952470255 23.3208380984471 7.090302654743755 0 0 0
37 444 1 -0.0339 9.128438861765 21.36860964984455 6.720036408057025 0 0 0
38 444 1 -0.0761 8.145199101871345 20.457185543899058 7.151811214700939 0 0 0
39 444 2 0.1029 8.033526725082929 19.503813763906923 6.65301985355347 0 0 0
40 444 1 0.0468 20.184393498430996 3.6777139110143318 11.546755487100617 0 0 0
41 444 1 -0.1278 20.96676360891815 4.738524111344381 12.02321477739971 0 0 0
42 444 2 0.1121 21.220601700671555 4.7948843999236 13.077350338550433 0 0 0
43 444 1 0.0468 26.007599497148732 11.532193845857869 9.589261183250963 0 0 0
44 444 1 -0.1278 25.177043284150894 10.935053632615888 10.552466108424033 0 0 0
45 444 2 0.1121 25.21472788656902 11.255804988505346 11.586527069111137 0 0 0
46 444 1 -0.1278 25.923671736977756 11.098995488731132 8.252621474792603 0 0 0
47 444 2 0.1121 26.5633624946159 11.531242466696163 7.4930176567092115 0 0 0
48 444 1 -0.1318 24.987799244692997 10.1345113955703 7.875639198734508 0 0 0
49 444 2 0.1078 24.929790653763327 9.831743271863246 6.836998019227914 0 0 0
50 444 1 0.022 24.11222169963833 9.585233719896745 8.82469966725756 0 0 0
51 444 1 -0.1318 24.23582880998148 9.972430137414024 10.172073197331999 0 0 0
52 444 2 0.1078 23.560407584331927 9.574838414400416 10.920536336939621 0 0 0
53 444 1 0.0468 18.53036736901826 9.255621282122364 3.6314506445490498 0 0 0
54 444 1 -0.1278 19.08162657664514 10.270302608814875 4.433928261578222 0 0 0
55 444 2 0.1121 18.797901881289274 11.305692090694523 4.280851887245518 0 0 0
56 444 1 -0.1318 19.942675507643635 9.949366386072498 5.488854207660082 0 0 0
57 444 2 0.1078 20.30249529377484 10.744106794217982 6.130690441162117 0 0 0
58 444 1 0.022 20.275376671659938 8.609443986815847 5.756382310326186 0 0 0
59 444 1 -0.1318 19.770939963924988 7.602477939362226 4.917378285793669 0 0 0
60 444 2 0.1078 20.033274785006473 6.565021364561545 5.087650964214995 0 0 0
61 444 1 -0.1278 18.905691720535 7.920697065893414 3.8686587708788065 0 0 0
62 444 2 0.1121 18.4992076628981 7.119625817779985 3.264040670292735 0 0 0
63 444 1 -0.1278 19.844460705243804 3.630860266153949 10.187505882476744 0 0 0
64 444 2 0.1121 19.241111757748218 2.814622165430181 9.807248097814542 0 0 0
65 444 1 -0.1318 20.30662559583921 4.623059645825997 9.312200782881147 0 0 0
66 444 2 0.1078 20.070300584823897 4.528132002240947 8.261424368213227 0 0 0
67 444 1 0.022 21.066994023843076 5.712824569188342 9.79162565820611 0 0 0
68 444 1 -0.1318 21.377733649581693 5.756955765232441 11.165288400236486 0 0 0
69 444 2 0.1078 21.913220893146896 6.59143166404864 11.595813629065619 0 0 0
70 444 1 -0.0339 23.005097686525282 8.692261217466042 8.39994910064165 0 0 0
71 444 1 -0.0761 22.234217410476734 9.012359748034935 7.271183165899122 0 0 0
72 444 2 0.1029 22.49728832849711 9.871305635229884 6.66680026848507 0 0 0
73 444 1 -0.0339 21.104634678215888 8.252406657942311 6.935546462459033 0 0 0
74 444 1 -0.0761 20.73211955701954 7.177413308563228 7.760846962448515 0 0 0
75 444 2 0.1029 19.806682846247618 6.65717775461415 7.552715797265228 0 0 0
76 444 1 -0.0339 21.503142080334534 6.819449239182951 8.882921037137036 0 0 0
77 444 1 -0.0761 22.65994659517103 7.571138992439314 9.169232106197418 0 0 0
78 444 2 0.1029 23.299004741909435 7.293558525079112 9.997008778439094 0 0 0
79 444 1 0.0468 11.69336897221647 9.54259397197247 25.080673335333216 0 0 0
80 444 1 -0.1278 10.383099688501678 10.041491653438687 25.146666376728497 0 0 0
81 444 2 0.1121 10.080738715719132 10.675346970972257 25.972314620690298 0 0 0
82 444 1 0.0468 3.982986771424957 11.897516279689158 19.26611418197987 0 0 0
83 444 1 -0.1278 4.156950825024266 11.552693338442433 20.61909135016699 0 0 0
84 444 2 0.1121 3.5410794460681227 12.009821653270125 21.38646957964048 0 0 0
85 444 1 -0.1278 4.797536620155803 11.285437424702966 18.297162218556547 0 0 0
86 444 2 0.1121 4.694982357910572 11.545094845876088 17.251507406861087 0 0 0
87 444 1 -0.1318 5.78438638484052 10.369253126111902 18.68096723110469 0 0 0
88 444 2 0.1078 6.427032829167235 9.938914572625965 17.922584648045852 0 0 0
89 444 1 0.022 5.972247345976551 10.04838033843516 20.038342733892435 0 0 0
90 444 1 -0.1318 5.138742877816321 10.638510283092389 20.999719329365956 0 0 0
91 444 2 0.1078 5.247160386228467 10.391283369465082 22.048827443364075 0 0 0
92 444 1 0.0468 9.363345111414148 3.836081729471471 17.489626210078754 0 0 0
93 444 1 -0.1278 8.011207347248304 4.068669698298718 17.804988212595273 0 0 0
94 444 2 0.1121 7.230052352239752 3.4827885535757934 17.3320484799828 0 0 0
95 444 1 -0.1318 7.655144078826927 5.082091199478306 18.697267339464492 0 0 0
96 444 2 0.1078 6.6072430820149215 5.2510172759596845 18.91227369106371 0 0 0
97 444 1 0.022 8.644149848178003 5.881786732957265 19.28870696215996 0 0 0
98 444 1 -0.1318 9.997650330123422 5.621363375969741 19.00579288279686 0 0 0
99 444 2 0.1078 10.779487114325041 6.239299359953661 19.429065942967036 0 0 0
100 444 1 -0.1278 10.354477209708147 4.605307310061292 18.119177387987776 0 0 0
101 444 2 0.1121 11.401261101088595 4.449882491370457 17.88444262406034 0 0 0
102 444 1 -0.1278 12.070261926586852 8.736090579374894 23.999322405853988 0 0 0
103 444 2 0.1121 13.088190683817775 8.372947763654512 23.91290205500413 0 0 0
104 444 1 -0.1318 11.161995479968354 8.439430637372704 22.991031082791384 0 0 0
105 444 2 0.1078 11.5175541930361 7.874696594665467 22.138843853212872 0 0 0
106 444 1 0.022 9.83030534339814 8.89082555117988 23.063455988586504 0 0 0
107 444 1 -0.1318 9.450438476470083 9.69771301380596 24.156296768971487 0 0 0
108 444 2 0.1078 8.433113385545978 10.054664830100283 24.25179874856964 0 0 0
109 444 1 -0.0339 7.041013632986908 9.110754824758311 20.461048922840767 0 0 0
110 444 1 -0.0761 7.269892024466505 7.926665805573688 19.743280177614572 0 0 0
111 444 2 0.1029 6.678973161532787 7.708335866966644 18.86206396388021 0 0 0
112 444 1 -0.0339 8.2796056294426 7.0381047755059 20.138145486970686 0 0 0
113 444 1 -0.0761 9.025358441108734 7.316671109111985 21.28799218138819 0 0 0
114 444 2 0.1029 9.752626143532693 6.587794619766429 21.622028684396106 0 0 0
115 444 1 -0.0339 8.870836601917645 8.529812491357967 21.979529255847826 0 0 0
116 444 1 -0.0761 7.861793283901533 9.417655977112902 21.56348883725321 0 0 0
117 444 2 0.1029 7.745016093221851 10.373563561689542 22.057601034260582 0 0 0
118 444 1 0.0468 25.264321994010935 17.865463826492736 19.605377246815443 0 0 0
119 444 1 -0.1278 24.211069942600304 17.48694177116858 20.448453247460964 0 0 0
120 444 2 0.1121 24.1070466902797 16.453279450442444 20.76319972970503 0 0 0
121 444 1 0.0468 17.80900820352079 20.38272836680694 25.610998248204545 0 0 0
122 444 1 -0.1278 18.472674500659792 19.375140165124694 24.891793168816275 0 0 0
123 444 2 0.1121 18.213130466264797 18.333548996304916 25.041834503692645 0 0 0
124 444 1 -0.1278 18.15861480088798 21.726087303685446 25.383866245200156 0 0 0
125 444 2 0.1121 17.65864365478354 22.519757724028423 25.92859050181374 0 0 0
126 444 1 -0.1318 19.104313178027578 22.057610579379787 24.409084449319398 0 0 0
127 444 2 0.1078 19.335014130240182 23.10143176071811 24.237350301169265 0 0 0
128 444 1 0.022 19.707778526567843 21.053585434645782 23.63242072566916 0 0 0
129 444 1 -0.1318 19.40435220916183 19.70713241663151 23.90746417292399 0 0 0
130 444 2 0.1078 19.83121830212766 18.91001920244663 23.312313588621294 0 0 0
131 444 1 0.0468 19.89273842533785 25.79675369475856 17.632381542583357 0 0 0
132 444 1 -0.1278 18.87663724677915 25.045270696044515 18.249875980659148 0 0 0
133 444 2 0.1121 17.840380493640364 25.193492812907706 17.96961107314435 0 0 0
134 444 1 -0.1318 19.200361451721715 24.055125492520474 19.1867845492578 0 0 0
135 444 2 0.1078 18.40683548154267 23.45177837783266 19.610375468249817 0 0 0
136 444 1 0.022 20.543403748810377 23.804298537182834 19.52203146081651 0 0 0
137 444 1 -0.1318 21.54963699891195 24.5945100833429 18.946755691006494 0 0 0
138 444 2 0.1078 22.58930545519041 24.439413617906066 19.208355510588166 0 0 0
139 444 1 -0.1278 21.22917762744664 25.576951794899315 18.011866364802056 0 0 0
140 444 2 0.1121 22.030510945707434 26.147708053802937 17.554333470181426 0 0 0
141 444 1 -0.1278 25.37556740340359 19.204308353500835 19.199561453662064 0 0 0
142 444 2 0.1121 26.1966871642425 19.51770642577477 18.567208274264665 0 0 0
143 444 1 -0.1318 24.450117496934276 20.15442531943957 19.649816161980382 0 0 0
144 444 2 0.1078 24.58665723631316 21.189033804267623 19.362390733935435 0 0 0
145 444 1 0.022 23.372342675826225 19.772997269776685 20.47625601549532 0 0 0
146 444 1 -0.1318 23.262860576920207 18.421772142053044 20.85722094437092 0 0 0
147 444 2 0.1078 22.428787873842523 18.07305374220573 21.451888887250785 0 0 0
148 444 1 -0.0339 20.5588959389396 21.398161854884947 22.463754375788938 0 0 0
149 444 1 -0.0761 20.20342938622767 22.457162126187075 21.61127783102224 0 0 0
150 444 2 0.1029 19.357099469312935 23.08747320743059 21.85468931732194 0 0 0
151 444 1 -0.0339 20.913006009148443 22.687441922189656 20.424052977908953 0 0 0
152 444 1 -0.0761 21.957644802384966 21.818400209440835 20.06723291195522 0 0 0
153 444 2 0.1029 22.434194712153126 21.94277373928059 19.103490397912793 0 0 0
154 444 1 -0.0339 22.337057940099513 20.758256428452423 20.907841755028333 0 0 0
155 444 1 -0.0761 21.658961580531905 20.592859285587835 22.128907604229006 0 0 0
156 444 2 0.1029 21.96934621499649 19.818311185136196 22.817793282113456 0 0 0
157 444 1 0.0468 24.855128081483507 16.8998821771381 10.501939253663165 0 0 0
158 444 1 -0.1278 24.394898120076974 17.372407497487437 9.25836447086361 0 0 0
159 444 2 0.1121 24.97458571518408 17.2145824537668 8.356880860519459 0 0 0
160 444 1 0.0468 16.809972294115237 18.478437670450962 5.147235475239923 0 0 0
161 444 1 -0.1278 18.148803022826325 18.075998492427573 5.238607062259211 0 0 0
162 444 2 0.1121 18.67197297416191 17.731257830192366 4.353746378949833 0 0 0
163 444 1 -0.1278 16.15925718956642 18.96086271440434 6.293908856919761 0 0 0
164 444 2 0.1121 15.126890766415327 19.289186656685903 6.233890735769698 0 0 0
165 444 1 -0.1318 16.851277571847874 19.091709918561623 7.501844606727994 0 0 0
166 444 2 0.1078 16.318406951492516 19.47541560413693 8.361992360756497 0 0 0
167 444 1 0.022 18.22633722620014 18.797080599869794 7.575641645003447 0 0 0
168 444 1 -0.1318 18.855466749959817 18.250710442957185 6.434787583937688 0 0 0
169 444 2 0.1078 19.915670856170212 18.038838471257133 6.432062344039932 0 0 0
170 444 1 0.0468 18.94414070780057 24.599537628996178 12.54137482009414 0 0 0
171 444 1 -0.1278 18.465013498949162 24.409839582889873 11.237352731983824 0 0 0
172 444 2 0.1121 18.02548071557295 25.23904782328734 10.694992078649262 0 0 0
173 444 1 -0.1318 18.646308374925066 23.176431534502903 10.592090055240499 0 0 0
174 444 2 0.1078 18.34645039450386 23.09452806551095 9.555885536827676 0 0 0
175 444 1 0.022 19.275168231043665 22.096198044888396 11.252858478980697 0 0 0
176 444 1 -0.1318 19.678697379939745 22.27825634136558 12.588845473270124 0 0 0
177 444 2 0.1078 20.128522416059287 21.468579539370342 13.147962407522554 0 0 0
178 444 1 -0.1278 19.53772944073971 23.51948616343014 13.214653601060652 0 0 0
179 444 2 0.1121 19.918616865443763 23.65249994722729 14.222077011656117 0 0 0
180 444 1 -0.1278 24.0718176355217 17.139362232862467 11.648576632737635 0 0 0
181 444 2 0.1121 24.389832440283172 16.767689598392558 12.614165985087828 0 0 0
182 444 1 -0.1318 22.84563721241563 17.8219081162836 11.540888753714578 0 0 0
183 444 2 0.1078 22.238147362861255 17.977529212971515 12.424653612408983 0 0 0
184 444 1 0.022 22.38055845864605 18.254168675029256 10.285310726642619 0 0 0
185 444 1 -0.1318 23.175882005350886 18.03588682896558 9.152586816946634 0 0 0
186 444 2 0.1078 22.84776895711757 18.382875819049012 8.179170317664743 0 0 0
187 444 1 -0.0339 19.030218140456743 19.176879510140065 8.78132034841517 0 0 0
188 444 1 -0.0761 18.720918978903324 20.340371954252483 9.516524549675234 0 0 0
189 444 2 0.1029 17.83808532417103 20.908999301403274 9.26290774724441 0 0 0
190 444 1 -0.0339 19.568178437209202 20.808567201803825 10.541564563054573 0 0 0
191 444 1 -0.0761 20.74553546365495 20.083166707267477 10.827462466822096 0 0 0
192 444 2 0.1029 21.458933995909128 20.465079077533627 11.546543939932873 0 0 0
193 444 1 -0.0339 21.06195938572391 18.914932368207452 10.118039040879252 0 0 0
194 444 1 -0.0761 20.18408657603839 18.453909132531127 9.125141798236953 0 0 0
195 444 2 0.1029 20.42616660925385 17.541311280860132 8.595332663418144 0 0 0
196 444 1 0.0468 24.271513956916074 12.73865984776816 18.14489929720371 0 0 0
197 444 1 -0.1278 23.812523191472096 12.237921578168352 19.378544716561983 0 0 0
198 444 2 0.1121 24.40176018833855 12.35993710407991 20.2816343236409 0 0 0
199 444 1 0.0468 16.54414785513979 10.826629912283371 23.78791961110292 0 0 0
200 444 1 -0.1278 17.844840383585577 11.315748065427291 23.60992071675186 0 0 0
201 444 2 0.1121 18.3904963007317 11.73193844783486 24.449564254385873 0 0 0
202 444 1 -0.1278 15.864379918576429 10.273044348883149 22.690315737652234 0 0 0
203 444 2 0.1121 14.854439638048 9.89793300664852 22.807281404508476 0 0 0
204 444 1 -0.1318 16.489219283566563 10.170591331791087 21.4431931191086 0 0 0
205 444 2 0.1078 15.933606848045146 9.744294191670654 20.617486949577096 0 0 0
206 444 1 0.022 17.825848691809497 10.577855290619404 21.27438372228725 0 0 0
207 444 1 -0.1318 18.486039805723124 11.175912064416469 22.37180942604137 0 0 0
208 444 2 0.1078 19.52245871130347 11.47802973176308 22.299421231435797 0 0 0
209 444 1 0.0468 18.71385640959396 4.803107368675116 16.425746656192054 0 0 0
210 444 1 -0.1278 19.959279785851972 5.296745760248147 16.862892998656715 0 0 0
211 444 2 0.1121 20.857221476933663 4.696309601903787 16.75967290529187 0 0 0
212 444 1 -0.1318 20.07390619273963 6.566751595400669 17.42139595761049 0 0 0
213 444 2 0.1078 21.04805711965991 6.900888562651311 17.75753634895072 0 0 0
214 444 1 0.022 18.94828577461234 7.388584029912968 17.564657030865803 0 0 0
215 444 1 -0.1318 17.691198327654043 6.896710050005927 17.158453325157133 0 0 0
216 444 2 0.1078 16.807455192165705 7.513761716494642 17.26219160303415 0 0 0
217 444 1 -0.1278 17.5746885986103 5.6150855321781545 16.585890092893045 0 0 0
218 444 2 0.1121 16.60608029580981 5.263605636932622 16.250991342955356 0 0 0
219 444 1 -0.1278 23.471948308592985 12.545784697563414 16.99986797861081 0 0 0
220 444 2 0.1121 23.79476275808702 12.92690845289541 16.039269970454963 0 0 0
221 444 1 -0.1318 22.232002344271596 11.880646661310292 17.103795145036102 0 0 0
222 444 2 0.1078 21.618133943961844 11.748457074819123 16.22113541013127 0 0 0
223 444 1 0.022 21.771798790283537 11.422502914179772 18.354018647179043 0 0 0
224 444 1 -0.1318 22.585208466434597 11.595072524436421 19.480493109911812 0 0 0
225 444 2 0.1078 22.271846345929212 11.221268718905417 20.44857843335606 0 0 0
226 444 1 -0.0339 18.55993650964814 10.287343479352772 20.000196804247324 0 0 0
227 444 1 -0.0761 18.301229698378435 9.104826439858952 19.274346688028288 0 0 0
228 444 2 0.1029 17.538877790678427 8.415736292465903 19.614206818185547 0 0 0
229 444 1 -0.0339 19.106004732020786 8.732877143422652 18.18320793974696 0 0 0
230 444 1 -0.0761 20.182993496073532 9.56082976456949 17.809073554418912 0 0 0
231 444 2 0.1029 20.849974515752855 9.250291018077306 17.013384701747153 0 0 0
232 444 1 -0.0339 20.46843580507171 10.730257225374045 18.526929522426087 0 0 0
233 444 1 -0.0761 19.62323868099576 11.109472494898741 19.584211701030412 0 0 0
234 444 2 0.1029 19.84034776861401 12.025117409650948 20.119721246059385 0 0 0
235 444 1 0.0468 10.569892006845668 24.799268068190273 16.625431816945465 0 0 0
236 444 1 -0.1278 9.310426248917368 24.354474432663952 17.070425456977368 0 0 0
237 444 2 0.1121 8.427048175316667 24.96737882566186 16.92490759972414 0 0 0
238 444 1 0.0468 4.902040300744182 17.018777289053975 18.407080729890932 0 0 0
239 444 1 -0.1278 5.406619679726587 17.346095545598807 19.67954091736647 0 0 0
240 444 2 0.1121 4.841060196890706 17.115697245347032 20.576605757582335 0 0 0
241 444 1 -0.1278 5.671465989038162 17.337991511774764 17.271302147262762 0 0 0
242 444 2 0.1121 5.3174317432789175 17.08306531793913 16.2808798549979 0 0 0
243 444 1 -0.1318 6.9214242613155585 17.967771269521364 17.416980357755946 0 0 0
244 444 2 0.1078 7.507624979339484 18.200738052381777 16.53618987597154 0 0 0
245 444 1 0.022 7.423548460652711 18.27148497869191 18.69780183878158 0 0 0
246 444 1 -0.1318 6.645273758933921 17.961764363316245 19.82145578004195 0 0 0
247 444 2 0.1078 6.987522547776266 18.21713698053761 20.81771411696799 0 0 0
248 444 1 0.0468 12.783576668936108 18.876184998158173 24.0543143323534 0 0 0
249 444 1 -0.1278 11.489049618688155 18.35774114052947 23.910659928923657 0 0 0
250 444 2 0.1121 10.965944860710033 17.95995727075341 24.772652457277214 0 0 0
251 444 1 -0.1318 10.816116508475178 18.47509188129439 22.686454162798288 0 0 0
252 444 2 0.1078 9.779745340991816 18.16894598187606 22.644704202032425 0 0 0
253 444 1 0.022 11.440117042268367 19.07820352046538 21.57106391717852 0 0 0
254 444 1 -0.1318 12.778756350970653 19.493304688210845 21.700328457567693 0 0 0
255 444 2 0.1078 13.309059129016108 19.926308776519978 20.86203314727315 0 0 0
256 444 1 -0.1278 13.431938717245904 19.41804180079442 22.932996257789355 0 0 0
257 444 2 0.1121 14.431454968710758 19.82938290668681 23.02991512328106 0 0 0
258 444 1 -0.1278 11.692537034198873 23.978435477251615 16.842454611404065 0 0 0
259 444 2 0.1121 12.672209777826334 24.295150134985246 16.50681021950218 0 0 0
260 444 1 -0.1318 11.546573093195676 22.72955182941174 17.470332995035104 0 0 0
261 444 2 0.1078 12.417996930163929 22.102092063393933 17.611411112402322 0 0 0
262 444 1 0.022 10.27704634227938 22.280752459497077 17.88234110520065 0 0 0
263 444 1 -0.1318 9.167055142180958 23.1155639730317 17.68998893703941 0 0 0
264 444 2 0.1078 8.183800774286837 22.81442008719631 18.030161170992766 0 0 0
265 444 1 -0.0339 8.71919041970839 18.973031545385787 18.894062115248726 0 0 0
266 444 1 -0.0761 9.582033280621888 18.579255770077037 19.93309393801872 0 0 0
267 444 2 0.1029 9.376795088615301 17.658001402743466 20.46288485513301 0 0 0
268 444 1 -0.0339 10.663999915282986 19.38805800111936 20.327622359625842 0 0 0
269 444 1 -0.0761 10.91290187950388 20.57553025652373 19.607303372402754 0 0 0
270 444 2 0.1029 11.687820625569914 21.257199343509214 19.934489082394485 0 0 0
271 444 1 -0.0339 10.092870522651518 20.95740262675281 18.533007495361012 0 0 0
272 444 1 -0.0761 9.003291188266752 20.14302566046374 18.177209159788877 0 0 0
273 444 2 0.1029 8.33356935334537 20.459967927931793 17.386814837789025 0 0 0
274 444 1 0.0468 10.60813987545896 4.694554017495467 12.248549455390277 0 0 0
275 444 1 -0.1278 9.407876525051428 5.199638210951335 11.713338223644682 0 0 0
276 444 2 0.1121 8.478648015393047 4.651435894186943 11.82933139192773 0 0 0
277 444 1 0.0468 5.555326242325449 12.728135359751963 10.307477268801017 0 0 0
278 444 1 -0.1278 6.075843930351848 12.446536360416104 9.030449045112107 0 0 0
279 444 2 0.1121 5.532723334622602 12.730326596662767 8.137118921255732 0 0 0
280 444 1 -0.1278 6.296229716854228 12.342774442743613 11.440397082047488 0 0 0
281 444 2 0.1121 5.929923685518648 12.56167300745147 12.43557704900057 0 0 0
282 444 1 -0.1318 7.5201376431875655 11.66929243382324 11.29130328151175 0 0 0
283 444 2 0.1078 8.074153158043101 11.373758290424597 12.174397766734076 0 0 0
284 444 1 0.022 8.027667665209357 11.381202013795427 10.009400517554338 0 0 0
285 444 1 -0.1318 7.291669450375449 11.782994386011772 8.884527907359976 0 0 0
286 444 2 0.1078 7.63938018908621 11.546523121738922 7.88603847417658 0 0 0
287 444 1 0.0468 13.453939897210452 10.40677732626468 4.7580383547509575 0 0 0
288 444 1 -0.1278 12.196067689908334 11.013837117493972 4.875222832323115 0 0 0
289 444 2 0.1121 11.743283815053482 11.498982390438233 4.018213250951662 0 0 0
290 444 1 -0.1318 11.473916097929584 10.910850058100106 6.071445502054327 0 0 0
291 444 2 0.1078 10.468157095354805 11.307306841770654 6.093558313611607 0 0 0
292 444 1 0.022 12.014315028406246 10.236640043473903 7.189540420555865 0 0 0
293 444 1 -0.1318 13.316701452960135 9.71165933310998 7.085091953872457 0 0 0
294 444 2 0.1078 13.789554606000591 9.227060190667418 7.9296607582352 0 0 0
295 444 1 -0.1278 14.01557018363646 9.771916473136402 5.876868726945505 0 0 0
296 444 2 0.1121 14.992958208592196 9.306614070306471 5.806617048945218 0 0 0
297 444 1 -0.1278 11.794042129130476 5.430452563920552 12.06469899174205 0 0 0
298 444 2 0.1121 12.730396254709184 5.064315325854544 12.468614317957902 0 0 0
299 444 1 -0.1318 11.76493124129678 6.6621836346756105 11.38714667353643 0 0 0
300 444 2 0.1078 12.681023306306674 7.229372697067433 11.277392678268525 0 0 0
301 444 1 0.022 10.550262275492054 7.176399025420139 10.89449598662757 0 0 0
302 444 1 -0.1318 9.380131987370765 6.420656395216636 11.046716090083764 0 0 0
303 444 2 0.1078 8.437750912459483 6.774974306431943 10.646971395253138 0 0 0
304 444 1 -0.0339 9.263638869216157 10.575166792504668 9.819510710859882 0 0 0
305 444 1 -0.0761 10.16788175719514 10.889693541497852 8.788869854654694 0 0 0
306 444 2 0.1029 10.047569049322462 11.823598519851215 8.255873126910897 0 0 0
307 444 1 -0.0339 11.190022333293184 9.994060667549746 8.417047608445431 0 0 0
308 444 1 -0.0761 11.33865342281116 8.799763408709786 9.154457356130399 0 0 0
309 444 2 0.1029 12.066255813363664 8.057338154066564 8.852821000949225 0 0 0
310 444 1 -0.0339 10.478194555606944 8.496741678583161 10.22045395301391 0 0 0
311 444 1 -0.0761 9.44842285586221 9.393419417418347 10.549714443635429 0 0 0
312 444 2 0.1029 8.747660906892882 9.133652761513037 11.334305753419963 0 0 0
313 444 3 0.7344000000000001 15.100081832422303 19.058866083538767 1.5580055844919538 0 0 0
314 444 4 -0.4924 15.789556281550457 19.779870960153065 3.4540444203861997 0 0 0
315 444 4 -0.4924 16.005144982343367 17.670419931612276 3.0097309255783693 0 0 0
316 444 4 -0.4924 16.34375675527423 18.829729374112418 26.721461818877398 0 0 0
317 444 4 -0.4924 15.861554654164474 20.938752874224193 26.893848479068094 0 0 0
318 444 4 -0.4924 13.492002668848002 18.08472842049897 26.234445038050694 0 0 0
319 444 4 -0.4924 13.841306084558557 20.17062587088967 25.735635318144485 0 0 0
320 444 4 -0.4924 13.91886475706772 20.65941722085141 2.333610773983468 0 0 0
321 444 4 -0.4924 13.135324017859636 18.632801084147452 2.3848494330955163 0 0 0
322 444 1 0.5689 16.169837736053367 18.634846030965903 3.828916975345744 0 0 0
323 444 1 0.5689 16.658477921770082 20.04141516208522 26.476988383714747 0 0 0
324 444 1 0.5689 13.391546434673048 19.039228924631335 25.389388873582835 0 0 0
325 444 1 0.5689 12.996010241384461 19.862971806374816 2.6900655713957633 0 0 0
326 444 3 0.7344000000000001 18.848733817996884 1.3023039949668103 14.448763163998521 0 0 0
327 444 4 -0.4924 20.537631365494395 27.19417738685059 15.80886869844062 0 0 0
328 444 4 -0.4924 18.401049158829707 27.01766012241981 16.163441867784528 0 0 0
329 444 4 -0.4924 17.948215889220073 26.66610442731251 13.343269672906247 0 0 0
330 444 4 -0.4924 20.08917019340668 26.378674354578678 13.61040824475034 0 0 0
331 444 4 -0.4924 18.4638379404453 2.3623312695147822 12.588048501238367 0 0 0
332 444 4 -0.4924 20.47535744794941 2.203164274155654 13.391326119957126 0 0 0
333 444 4 -0.4924 19.75720808396806 2.8528774850678933 15.556478713471245 0 0 0
334 444 4 -0.4924 17.602362573255558 2.922533954191209 15.305520785879345 0 0 0
335 444 1 0.5689 19.594935324813434 26.726709503883573 16.518665359622187 0 0 0
336 444 1 0.5689 18.98857606261907 25.940564230541355 13.160989660368047 0 0 0
337 444 1 0.5689 19.698917236645123 2.6681658407694244 12.503030027241001 0 0 0
338 444 1 0.5689 18.67157130529129 3.4732217889155845 15.754880791630717 0 0 0
339 444 3 0.7344000000000001 14.789706006527775 10.463901673380331 27.36922698121554 0 0 -1
340 444 4 -0.4924 17.129868781250696 10.76212059274097 2.366566907969185 0 0 0
341 444 4 -0.4924 16.75044648613087 8.63428420170369 2.1486846753323103 0 0 0
342 444 4 -0.4924 15.588538303722176 9.595630254593273 25.58421272894997 0 0 0
343 444 4 -0.4924 15.737090359949809 11.747262798616381 25.879339130838538 0 0 0
344 444 4 -0.4924 13.542648642868867 8.99114128348591 26.468660825865907 0 0 0
345 444 4 -0.4924 12.940990419930142 11.085945386403408 26.432664320930026 0 0 0
346 444 4 -0.4924 14.32928926740648 11.328065221591864 2.6981933365539232 0 0 0
347 444 4 -0.4924 14.56103479356362 9.188557152152454 3.038544752033226 0 0 0
348 444 1 0.5689 17.46335971514954 9.56392699909257 2.6509417571207625 0 0 0
349 444 1 0.5689 15.95001931926417 10.728952392129903 25.135344366031443 0 0 0
350 444 1 0.5689 12.713351759341961 9.87961982538924 26.084403208190913 0 0 0
351 444 1 0.5689 14.134163422056107 10.312911875086366 3.4524254158193672 0 0 0
352 444 3 0.7344000000000001 10.287271940594211 1.383591331490817 14.487291309982874 0 0 0
353 444 4 -0.4924 11.759727051259627 26.58841740427659 15.465646613569497 0 0 0
354 444 4 -0.4924 9.595546095817008 26.716718214217575 15.602488100820613 0 0 0
355 444 4 -0.4924 9.170878861469728 27.384855083693395 13.160413646327472 0 0 0
356 444 4 -0.4924 11.283587224395795 26.966504849474607 12.838687453752557 0 0 0
357 444 4 -0.4924 9.441269431978265 2.9064223124484876 13.296344764723171 0 0 0
358 444 4 -0.4924 11.603150290286848 2.867585925680115 13.531105352201207 0 0 0
359 444 4 -0.4924 10.94267682389278 2.6099519058874048 16.140051337192574 0 0 0
360 444 4 -0.4924 8.826833879510014 2.313287054575526 15.729111945998953 0 0 0
361 444 1 0.5689 10.657823565448327 26.086116220626895 15.886875731972069 0 0 0
362 444 1 0.5689 10.06717587703543 26.795302231982877 12.480459152250086 0 0 0