Created on Tue Feb 11 17:12:30 2025 

          17 atoms
          16 bonds
          30 angles
          36 dihedrals

           3 atom types
           2 bond types
           3 angle types
           1 dihedral types
           0.000000  30.000000 xlo xhi
           0.000000  30.000000 ylo yhi
           0.000000  30.000000 zlo zhi
           0.000000   0.000000   0.000000 xy xz yz

Masses

    1    14.006700000 # N_3
    2    12.010700000 # C_3
    3     1.007940000 # H_

Bond Coeffs

    1      528.634538        1.451071  # N_3 C_3
    2      331.069389        1.109401  # C_3 H_

Angle Coeffs

    1      260.869388        0.317506        0.313225        0.272502 # C_3 N_3 C_3
    2      169.780468        0.343737        0.374972        0.281246 # N_3 C_3 H_
    3       75.498766        0.343737        0.374972        0.281246 # H_ C_3 H_

Dihedral Coeffs

    1        0.054250               1               3 # C_3 N_3 C_3 H_

Pair Coeffs

    1        0.069000        3.260689 # N_3 N_3
    2        0.105000        3.430851 # C_3 C_3
    3        0.044000        2.571134 # H_ H_

Atoms

       1        1        1     0.08172    0.00000    0.00000    0.00000
       2        1        2    -0.21538   -0.50310   -0.71130    1.23210
       3        1        2    -0.21538   -0.50310   -0.71130   -1.23210
       4        1        2    -0.21538   -0.50310    1.42260    0.00000
       5        1        2    -0.21538    1.50900    0.00000    0.00000
       6        1        3     0.14832   -0.15600   -0.22050    2.14620
       7        1        3     0.14832   -1.59660   -0.72990    1.26390
       8        1        3     0.14832   -0.15600   -1.74840    1.26390
       9        1        3     0.14832   -0.15600   -0.22050   -2.14620
      10        1        3     0.14832   -1.59660   -0.72990   -1.26390
      11        1        3     0.14832   -0.15600   -1.74840   -1.26390
      12        1        3     0.14832   -0.15600    1.96890   -0.88230
      13        1        3     0.14832   -1.59660    1.45950    0.00000
      14        1        3     0.14832   -0.15600    1.96890    0.88230
      15        1        3     0.14832    1.90830    0.50940   -0.88230
      16        1        3     0.14832    1.90830   -1.01880    0.00000
      17        1        3     0.14832    1.90830    0.50940    0.88230

Bonds

       1        1        1        2
       2        1        1        3
       3        1        1        4
       4        1        1        5
       5        2        2        6
       6        2        2        7
       7        2        2        8
       8        2        3        9
       9        2        3       10
      10        2        3       11
      11        2        4       12
      12        2        4       13
      13        2        4       14
      14        2        5       15
      15        2        5       16
      16        2        5       17

Angles

       1        1        2        1        3
       2        1        2        1        4
       3        1        2        1        5
       4        1        3        1        4
       5        1        3        1        5
       6        1        4        1        5
       7        2        1        2        6
       8        2        1        2        7
       9        2        1        2        8
      10        3        6        2        7
      11        3        6        2        8
      12        3        7        2        8
      13        2        1        3        9
      14        2        1        3       10
      15        2        1        3       11
      16        3        9        3       10
      17        3        9        3       11
      18        3       10        3       11
      19        2        1        4       12
      20        2        1        4       13
      21        2        1        4       14
      22        3       12        4       13
      23        3       12        4       14
      24        3       13        4       14
      25        2        1        5       15
      26        2        1        5       16
      27        2        1        5       17
      28        3       15        5       16
      29        3       15        5       17
      30        3       16        5       17

Dihedrals

       1        1        3        1        2        6
       2        1        3        1        2        7
       3        1        3        1        2        8
       4        1        4        1        2        6
       5        1        4        1        2        7
       6        1        4        1        2        8
       7        1        5        1        2        6
       8        1        5        1        2        7
       9        1        5        1        2        8
      10        1        2        1        3        9
      11        1        2        1        3       10
      12        1        2        1        3       11
      13        1        4        1        3        9
      14        1        4        1        3       10
      15        1        4        1        3       11
      16        1        5        1        3        9
      17        1        5        1        3       10
      18        1        5        1        3       11
      19        1        2        1        4       12
      20        1        2        1        4       13
      21        1        2        1        4       14
      22        1        3        1        4       12
      23        1        3        1        4       13
      24        1        3        1        4       14
      25        1        5        1        4       12
      26        1        5        1        4       13
      27        1        5        1        4       14
      28        1        2        1        5       15
      29        1        2        1        5       16
      30        1        2        1        5       17
      31        1        3        1        5       15
      32        1        3        1        5       16
      33        1        3        1        5       17
      34        1        4        1        5       15
      35        1        4        1        5       16
      36        1        4        1        5       17
