Created on Tue Feb 11 17:12:26 2025 

         256 atoms
         320 bonds
         608 angles
         448 dihedrals
         288 impropers

           7 atom types
           6 bond types
           9 angle types
           3 dihedral types
           1 improper types
           0.000000  41.341000 xlo xhi
           0.000000  26.893000 ylo yhi
           0.000000  26.085000 zlo zhi
           0.004694   0.000000   0.000000 xy xz yz

Atoms

       1      444        1     0.24910   37.01801    4.97870   11.28176
       2      444        2    -0.12420   37.92907    6.76117   12.40707
       3      444        1     0.24910   35.20626    6.27790    9.64519
       4      444        2    -0.12420   35.56011    8.46000   10.26706
       5      444        1     0.24910   37.63029    7.46711   10.24254
       6      444        1     0.24910   35.68971    7.22400   12.19813
       7      444        2    -0.12420   37.28765    5.51898    9.07575
       8      444        2    -0.12420   34.76662    5.20380   11.61591
       9      444        1     0.24910   35.20877   20.61617   22.68847
      10      444        2    -0.12420   35.56227   18.43408   23.31060
      11      444        1     0.24910   37.02056   21.91564   24.32531
      12      444        2    -0.12420   37.93140   20.13318   25.45061
      13      444        1     0.24910   37.63280   19.42697   23.28608
      14      444        1     0.24910   35.69188   19.67008   25.24167
      15      444        2    -0.12420   37.29001   21.37483   22.11930
      16      444        2    -0.12420   34.76909   21.69055   24.65919
      17      444        1     0.24910   16.95995    5.98047   15.84142
      18      444        2    -0.12420   16.62625    7.92537   17.01551
      19      444        1     0.24910   15.01903    6.22358   13.88557
      20      444        2    -0.12420   14.08880    8.24324   14.45865
      21      444        1     0.24910   16.34771    8.46887   14.80219
      22      444        1     0.24910   14.53592    7.16967   16.43877
      23      444        2    -0.12420   17.25152    6.67888   13.68289
      24      444        2    -0.12420   14.89769    4.99134   15.80855
      25      444        1     0.24910   26.80758    7.16860   22.68769
      26      444        2    -0.12420   26.45415    4.98650   23.30956
      27      444        1     0.24910   24.99583    8.46780   24.32426
      28      444        2    -0.12420   24.08478    6.68560   25.44983
      29      444        1     0.24910   26.32414    6.22250   25.24063
      30      444        1     0.24910   24.38355    5.97939   23.28504
      31      444        2    -0.12420   27.24722    8.24270   24.65841
      32      444        2    -0.12420   24.72620    7.92725   22.11825
      33      444        1     0.24910    5.65382    7.22292    0.84307
      34      444        2    -0.12420    6.58446    5.20353    1.41615
      35      444        1     0.24910    3.71290    7.46603    2.79892
      36      444        2    -0.12420    4.04701    5.52113    3.97327
      37      444        1     0.24910    6.13693    6.27683    3.39627
      38      444        1     0.24910    4.32514    4.97763    1.75943
      39      444        2    -0.12420    5.77516    8.45516    2.76605
      40      444        2    -0.12420    3.42132    6.76762    0.64039
      41      444        1     0.24910   24.99798   18.42413   11.28281
      42      444        2    -0.12420   24.08714   20.20632   12.40811
      43      444        1     0.24910   26.80977   19.72333    9.64597
      44      444        2    -0.12420   26.45628   21.90542   10.26836
      45      444        1     0.24910   26.32666   20.66942   12.19917
      46      444        1     0.24910   24.38574   20.91253   10.24358
      47      444        2    -0.12420   27.24945   18.64895   11.61669
      48      444        2    -0.12420   24.72854   18.96467    9.07680
      49      444        1     0.24910   15.02073   20.67023    0.84463
      50      444        2    -0.12420   14.09020   18.65056    1.41772
      51      444        1     0.24910   16.96173   20.91307    2.80022
      52      444        2    -0.12420   16.62777   18.96817    3.97457
      53      444        1     0.24910   16.34945   18.42466    1.76100
      54      444        1     0.24910   14.53728   19.72413    3.39783
      55      444        2    -0.12420   17.25306   20.21466    0.64195
      56      444        2    -0.12420   14.89981   21.90247    2.76788
      57      444        1     0.24910    3.71581   19.42643   15.84272
      58      444        2    -0.12420    4.04977   21.37133   17.01733
      59      444        1     0.24910    5.65681   19.66927   13.88713
      60      444        2    -0.12420    6.58775   21.68867   14.46022
      61      444        1     0.24910    6.13984   20.61537   16.44033
      62      444        1     0.24910    4.32809   21.91484   14.80350
      63      444        2    -0.12420    5.77773   18.43703   15.81038
      64      444        2    -0.12420    3.42448   20.12484   13.68445
      65      444        3    -0.16330   31.92310    7.06640   18.92154
      66      444        3     0.22060   30.40754    7.06909   18.64791
      67      444        3    -0.16330   29.88502    7.24981   17.21062
      68      444        3    -0.16330   30.87806    7.42785   16.04697
      69      444        3     0.22060   32.39362    7.42489   16.32060
      70      444        3    -0.16330   32.91614    7.24417   17.75789
      71      444        4     0.08830   33.96910    7.24228   17.94805
      72      444        4     0.08830   32.28647    6.94081   19.92033
      73      444        4     0.08830   28.83207    7.25170   17.02046
      74      444        2    -0.69550   33.47224    7.60158   15.15669
      75      444        2    -0.69550   29.35083    6.87762   19.95633
      76      444        4     0.08830   30.51511    7.55344   15.04844
      77      444        3    -0.16330   30.93925   19.30057    3.16646
      78      444        3     0.22060   32.45481   19.30326    3.44035
      79      444        3    -0.16330   32.97740   19.48317    4.87763
      80      444        3    -0.16330   31.98442   19.66067    6.04129
      81      444        3     0.22060   30.46885   19.65824    5.76765
      82      444        3    -0.16330   29.94627   19.47806    4.33011
      83      444        4     0.08830   28.89332   19.47618    4.13995
      84      444        4     0.08830   30.57626   19.17552    2.16792
      85      444        4     0.08830   34.03035   19.48505    5.06779
      86      444        2    -0.69550   29.38988   19.83439    6.93183
      87      444        2    -0.69550   33.51146   19.11205    2.13167
      88      444        4     0.08830   32.34741   19.78599    7.04008
      89      444        3    -0.16330   11.25493    6.23191    7.14233
      90      444        3     0.22060    9.74932    6.38574    7.42666
      91      444        3    -0.16330    9.23338    6.36154    8.87751
      92      444        3    -0.16330   10.22305    6.18351   10.04377
      93      444        3     0.22060   11.72867    6.02968    9.75944
      94      444        3    -0.16330   12.24461    6.05388    8.30859
      95      444        4     0.08830   13.29052    5.94685    8.11087
      96      444        4     0.08830   11.61336    6.24886    6.13415
      97      444        4     0.08830    8.18706    6.46857    9.07497
      98      444        2    -0.69550   12.80391    5.84519   10.92544
      99      444        2    -0.69550    8.69516    6.57211    6.11537
     100      444        4     0.08830    9.86463    6.16656   11.05169
     101      444        3    -0.16330   29.15272    6.36369    4.73182
     102      444        3     0.22060   29.64417    5.83417    3.37201
     103      444        3    -0.16330   31.13032    5.48214    3.17428
     104      444        3    -0.16330   32.12501    5.65963    4.33663
     105      444        3     0.22060   31.63315    6.18915    5.69670
     106      444        3    -0.16330   30.14700    6.54118    5.89417
     107      444        4     0.08830   29.80559    6.90908    6.83923
     108      444        4     0.08830   28.12006    6.60815    4.86929
     109      444        4     0.08830   31.47214    5.11424    2.22948
     110      444        2    -0.69550   32.61462    6.39166    6.94018
     111      444        2    -0.69550   28.51925    5.66071    2.11888
     112      444        4     0.08830   33.15767    5.41517    4.19942
     113      444        3    -0.16330   10.39316    7.26461   22.94645
     114      444        3     0.22060    8.88092    7.34313   22.66578
     115      444        3    -0.16330    8.36456    7.31543   21.21519
     116      444        3    -0.16330    9.36045    7.20921   20.04528
     117      444        3     0.22060   10.87269    7.13095   20.32621
     118      444        3    -0.16330   11.38904    7.15865   21.77680
     119      444        4     0.08830   12.43951    7.10405   21.97192
     120      444        4     0.08830   10.75158    7.28397   23.95438
     121      444        4     0.08830    7.31368    7.37003   21.02008
     122      444        2    -0.69550   11.95373    7.01638   19.15656
     123      444        2    -0.69550    7.82137    7.46603   23.98020
     124      444        4     0.08830    9.00160    7.19011   19.03735
     125      444        3    -0.16330   32.03174   20.77269   17.31366
     126      444        3     0.22060   31.50459   20.50188   18.73529
     127      444        3    -0.16330   29.98860   20.40937   18.98962
     128      444        3    -0.16330   28.99976   20.58767   17.82258
     129      444        3     0.22060   29.52690   20.85821   16.40120
     130      444        3    -0.16330   31.04289   20.95072   16.14662
     131      444        4     0.08830   31.40879   21.13870   15.15904
     132      444        4     0.08830   33.08512   20.83697   17.13680
     133      444        4     0.08830   29.62229   20.22138   19.97720
     134      444        2    -0.69550   28.55211   21.04834   15.15043
     135      444        2    -0.69550   32.62573   20.31954   19.99024
     136      444        4     0.08830   27.94638   20.52312   17.99943
     137      444        3    -0.16330    9.34045   20.52151   21.82480
     138      444        3     0.22060    9.86258   20.51506   20.37604
     139      444        3    -0.16330   11.36742   20.68636   20.09901
     140      444        3    -0.16330   12.35096   20.86440   21.27075
     141      444        3     0.22060   11.82924   20.87085   22.71951
     142      444        3    -0.16330   10.32398   20.69954   22.99680
     143      444        4     0.08830    9.96142   20.70411   24.00342
     144      444        4     0.08830    8.29491   20.40264   22.01757
     145      444        4     0.08830   11.72998   20.68179   19.09213
     146      444        2    -0.69550   12.79871   21.04808   23.97603
     147      444        2    -0.69550    8.74676   20.32385   19.11744
     148      444        4     0.08830   13.39649   20.98353   21.07798
     149      444        3    -0.16330   10.40641   19.26346    9.87056
     150      444        3     0.22060    8.89044   19.30514    9.60137
     151      444        3    -0.16330    8.36835   19.52459    8.16930
     152      444        3    -0.16330    9.36221   19.70208    7.00643
     153      444        3     0.22060   10.87777   19.66040    7.27537
     154      444        3    -0.16330   11.39987   19.44122    8.70743
     155      444        4     0.08830   12.45323   19.41217    8.89446
     156      444        4     0.08830   10.76895   19.11097   10.86545
     157      444        4     0.08830    7.31540   19.55336    7.98253
     158      444        2    -0.69550   11.95721   19.83493    6.11145
     159      444        2    -0.69550    7.83332   19.11259   10.90927
     160      444        4     0.08830    8.99927   19.85456    6.01129
     161      444        3    -0.16330   39.89307    8.49442    6.32248
     162      444        3     0.22060   40.47102    8.50303    7.74985
     163      444        3    -0.16330    0.65467    8.47506    7.96323
     164      444        3    -0.16330    1.60178    8.43902    6.74949
     165      444        3     0.22060    1.02383    8.43042    5.32212
     166      444        3    -0.16330   40.84018    8.45812    5.10849
     167      444        4     0.08830   40.43835    8.45247    4.11673
     168      444        4     0.08830   38.83350    8.51379    6.17406
     169      444        4     0.08830    1.05650    8.48098    8.95498
     170      444        2    -0.69550    1.95359    8.39653    4.02413
     171      444        2    -0.69550   39.39450    8.53584    9.05593
     172      444        4     0.08830    2.66135    8.41966    6.89792
     173      444        3    -0.16330   41.13897   17.28978   20.34187
     174      444        3     0.22060   40.30244   18.54299   20.65932
     175      444        3    -0.16330   40.44405   19.80454   19.78756
     176      444        3    -0.16330    0.08118   19.81288   18.59808
     177      444        3     0.22060    0.91770   18.55940   18.28037
     178      444        3    -0.16330    0.77610   17.29785   19.15239
     179      444        4     0.08830    1.35761   16.42705   18.93171
     180      444        4     0.08830   41.04084   16.41334   20.94756
     181      444        4     0.08830   39.86253   20.67534   20.00824
     182      444        2    -0.69550    1.94584   18.50534   17.05985
     183      444        2    -0.69550   39.24452   18.49378   21.98000
     184      444        4     0.08830    0.17931   20.68932   17.99239
     185      444        3    -0.16330   19.22071    4.97763   19.76278
     186      444        3     0.22060   19.79824    4.94240   18.33567
     187      444        3    -0.16330   21.32331    4.94320   18.12177
     188      444        3    -0.16330   22.27085    4.97897   19.33525
     189      444        3     0.22060   21.69332    5.01447   20.76236
     190      444        3    -0.16330   20.16826    5.01366   20.97625
     191      444        4     0.08830   19.76684    5.03813   21.96774
     192      444        4     0.08830   18.16114    4.97736   19.91120
     193      444        4     0.08830   21.72473    4.91846   17.13028
     194      444        2    -0.69550   22.62350    5.04943   22.05982
     195      444        2    -0.69550   18.72130    4.91066   17.02985
     196      444        4     0.08830   23.33042    4.97951   19.18682
     197      444        3    -0.16330   22.12246   21.69808    6.32379
     198      444        3     0.22060   21.54493   21.69566    7.75116
     199      444        3    -0.16330   20.01986   21.72954    7.96479
     200      444        3    -0.16330   19.07316   21.76585    6.75106
     201      444        3     0.22060   19.65070   21.76800    5.32343
     202      444        3    -0.16330   21.17535   21.73412    5.10979
     203      444        4     0.08830   21.57718   21.73573    4.11804
     204      444        4     0.08830   23.18203   21.67441    6.17536
     205      444        4     0.08830   19.61844   21.72793    8.95681
     206      444        2    -0.69550   18.72094   21.80162    4.02570
     207      444        2    -0.69550   22.62103   21.66258    9.05749
     208      444        4     0.08830   18.01360   21.78925    6.89948
     209      444        3    -0.16330   39.93838   26.52403   12.85312
     210      444        3     0.22060   40.37381    1.09212   12.64523
     211      444        3    -0.16330    0.52239    1.46970   12.74852
     212      444        3    -0.16330    1.57144    0.38618   13.05998
     213      444        3     0.22060    1.13601   25.81809   13.26761
     214      444        3    -0.16330   40.98784   25.44051   13.16432
     215      444        4     0.08830   40.68174   24.42530   13.30883
     216      444        4     0.08830   38.90357   26.26182   12.78139
     217      444        4     0.08830    0.82849    2.48464   12.60427
     218      444        2    -0.69550    2.17636   24.64985   13.58976
     219      444        2    -0.69550   39.18753    2.25283   12.31212
     220      444        4     0.08830    2.60666    0.64839   13.13171
     221      444        3    -0.16330    1.41891   26.52860    0.14373
     222      444        3     0.22060    0.97088    1.08809    0.39910
     223      444        3    -0.16330   40.81829    1.45841    0.34354
     224      444        3    -0.16330   39.76763    0.37623    0.03261
     225      444        3     0.22060   40.21524   25.81674   25.86223
     226      444        3    -0.16330    0.36824   25.44643   25.91780
     227      444        4     0.08830    0.67606   24.43713   25.74042
     228      444        4     0.08830    2.45652   26.27123    0.18260
     229      444        4     0.08830   40.51006    2.46770    0.52092
     230      444        2    -0.69550   39.17407   24.65012   25.53852
     231      444        2    -0.69550    2.15881    2.24799    0.73038
     232      444        4     0.08830   38.72960    0.63360   26.08239
     233      444        3    -0.16330   20.26340   14.84171   12.84634
     234      444        3     0.22060   21.73755   14.44423   12.64575
     235      444        3    -0.16330   22.15815   12.96700   12.75583
     236      444        3    -0.16330   21.10500   11.88724   13.06676
     237      444        3     0.22060   19.63085   12.28499   13.26735
     238      444        3    -0.16330   19.20984   13.76222   13.15727
     239      444        4     0.08830   18.18546   14.03841   13.29683
     240      444        4     0.08830   19.97089   15.86821   12.76991
     241      444        4     0.08830   23.18253   12.69054   12.61627
     242      444        2    -0.69550   18.49255   11.21196   13.58846
     243      444        2    -0.69550   22.86389   15.66302   12.31264
     244      444        4     0.08830   21.39752   10.86074   13.14319
     245      444        3    -0.16330   20.96289   14.85220   25.78059
     246      444        3     0.22060   19.65149   14.48215    0.41319
     247      444        3    -0.16330   19.38252   13.02186    0.82142
     248      444        3    -0.16330   20.42536   11.93162    0.51205
     249      444        3     0.22060   21.73676   12.30140   25.87945
     250      444        3    -0.16330   22.00532   13.76169   25.47122
     251      444        4     0.08830   22.91652   14.01878   24.97247
     252      444        4     0.08830   21.14952   15.86687   25.49678
     253      444        4     0.08830   18.47132   12.76476    1.32016
     254      444        2    -0.69550   22.85692   11.21707   25.53435
     255      444        2    -0.69550   18.52930   15.71035    0.72751
     256      444        4     0.08830   20.23832   10.91694    0.79585

Bonds

       1        1        1        2
       2        1        1        7
       3        1        1        8
       4        1        2        5
       5        1        2        6
       6        1        3        4
       7        1        3        7
       8        1        3        8
       9        1        4        5
      10        1        4        6
      11        1        5        7
      12        1        6        8
      13        1        9       10
      14        1        9       15
      15        1        9       16
      16        1       10       13
      17        1       10       14
      18        1       11       12
      19        1       11       15
      20        1       11       16
      21        1       12       13
      22        1       12       14
      23        1       13       15
      24        1       14       16
      25        1       17       18
      26        1       17       23
      27        1       17       24
      28        1       18       21
      29        1       18       22
      30        1       19       20
      31        1       19       23
      32        1       19       24
      33        1       20       21
      34        1       20       22
      35        1       21       23
      36        1       22       24
      37        1       25       26
      38        1       25       31
      39        1       25       32
      40        1       26       29
      41        1       26       30
      42        1       27       28
      43        1       27       31
      44        1       27       32
      45        1       28       29
      46        1       28       30
      47        1       29       31
      48        1       30       32
      49        1       33       34
      50        1       33       39
      51        1       33       40
      52        1       34       37
      53        1       34       38
      54        1       35       36
      55        1       35       39
      56        1       35       40
      57        1       36       37
      58        1       36       38
      59        1       37       39
      60        1       38       40
      61        1       41       42
      62        1       41       47
      63        1       41       48
      64        1       42       45
      65        1       42       46
      66        1       43       44
      67        1       43       47
      68        1       43       48
      69        1       44       45
      70        1       44       46
      71        1       45       47
      72        1       46       48
      73        1       49       50
      74        1       49       55
      75        1       49       56
      76        1       50       53
      77        1       50       54
      78        1       51       52
      79        1       51       55
      80        1       51       56
      81        1       52       53
      82        1       52       54
      83        1       53       55
      84        1       54       56
      85        1       57       58
      86        1       57       63
      87        1       57       64
      88        1       58       61
      89        1       58       62
      90        1       59       60
      91        1       59       63
      92        1       59       64
      93        1       60       61
      94        1       60       62
      95        1       61       63
      96        1       62       64
      97        2       65       66
      98        3       65       72
      99        2       66       67
     100        4       66       75
     101        2       67       68
     102        3       67       73
     103        2       68       69
     104        3       68       76
     105        2       69       70
     106        4       69       74
     107        2       70       65
     108        3       70       71
     109        1       74        6
     110        1       75       25
     111        2       77       78
     112        3       77       84
     113        2       78       79
     114        4       78       87
     115        2       79       80
     116        3       79       85
     117        2       80       81
     118        3       80       88
     119        2       81       82
     120        4       81       86
     121        2       82       77
     122        3       82       83
     123        1       86       43
     124        1       87       14
     125        2       89       90
     126        3       89       96
     127        2       90       91
     128        4       90       99
     129        2       91       92
     130        3       91       97
     131        2       92       93
     132        3       92      100
     133        2       93       94
     134        4       93       98
     135        2       94       89
     136        3       94       95
     137        1       98       19
     138        1       99       37
     139        2      101      102
     140        3      101      108
     141        2      102      103
     142        4      102      111
     143        2      103      104
     144        3      103      109
     145        2      104      105
     146        3      104      112
     147        2      105      106
     148        4      105      110
     149        2      106      101
     150        3      106      107
     151        1      110        3
     152        1      111       29
     153        2      113      114
     154        3      113      120
     155        2      114      115
     156        4      114      123
     157        2      115      116
     158        3      115      121
     159        2      116      117
     160        3      116      124
     161        2      117      118
     162        4      117      122
     163        2      118      113
     164        3      118      119
     165        1      122       22
     166        1      123       33
     167        2      125      126
     168        3      125      132
     169        2      126      127
     170        4      126      135
     171        2      127      128
     172        3      127      133
     173        2      128      129
     174        3      128      136
     175        2      129      130
     176        4      129      134
     177        2      130      125
     178        3      130      131
     179        1      134       45
     180        1      135        9
     181        2      137      138
     182        3      137      144
     183        2      138      139
     184        4      138      147
     185        2      139      140
     186        3      139      145
     187        2      140      141
     188        3      140      148
     189        2      141      142
     190        4      141      146
     191        2      142      137
     192        3      142      143
     193        1      146       49
     194        1      147       61
     195        2      149      150
     196        3      149      156
     197        2      150      151
     198        4      150      159
     199        2      151      152
     200        3      151      157
     201        2      152      153
     202        3      152      160
     203        2      153      154
     204        4      153      158
     205        2      154      149
     206        3      154      155
     207        1      158       54
     208        1      159       59
     209        2      161      162
     210        3      161      168
     211        2      162      163
     212        4      162      171
     213        2      163      164
     214        3      163      169
     215        2      164      165
     216        3      164      172
     217        2      165      166
     218        4      165      170
     219        2      166      161
     220        3      166      167
     221        1      170       35
     222        1      171        5
     223        2      173      174
     224        3      173      180
     225        2      174      175
     226        4      174      183
     227        2      175      176
     228        3      175      181
     229        2      176      177
     230        3      176      184
     231        2      177      178
     232        4      177      182
     233        2      178      173
     234        3      178      179
     235        1      182       57
     236        1      183       13
     237        2      185      186
     238        3      185      192
     239        2      186      187
     240        4      186      195
     241        2      187      188
     242        3      187      193
     243        2      188      189
     244        3      188      196
     245        2      189      190
     246        4      189      194
     247        2      190      185
     248        3      190      191
     249        1      194       30
     250        1      195       17
     251        2      197      198
     252        3      197      204
     253        2      198      199
     254        4      198      207
     255        2      199      200
     256        3      199      205
     257        2      200      201
     258        3      200      208
     259        2      201      202
     260        4      201      206
     261        2      202      197
     262        3      202      203
     263        1      206       51
     264        1      207       46
     265        2      209      210
     266        3      209      216
     267        2      210      211
     268        4      210      219
     269        2      211      212
     270        3      211      217
     271        2      212      213
     272        3      212      220
     273        2      213      214
     274        4      213      218
     275        2      214      209
     276        3      214      215
     277        1      218       62
     278        1      219        1
     279        2      221      222
     280        3      221      228
     281        2      222      223
     282        4      222      231
     283        2      223      224
     284        3      223      229
     285        2      224      225
     286        3      224      232
     287        2      225      226
     288        4      225      230
     289        2      226      221
     290        3      226      227
     291        1      230       11
     292        1      231       38
     293        2      233      234
     294        3      233      240
     295        2      234      235
     296        4      234      243
     297        2      235      236
     298        3      235      241
     299        2      236      237
     300        3      236      244
     301        2      237      238
     302        4      237      242
     303        2      238      233
     304        3      238      239
     305        1      242       21
     306        1      243       41
     307        2      245      246
     308        3      245      252