LAMMPS data file via write_data, version 23 Jun 2022, timestep = 366

528 atoms
7 atom types
576 bonds
6 bond types
1088 angles
9 angle types
1024 dihedrals
3 dihedral types
288 impropers
1 improper types

7.104615291901011 34.23638470809934 xlo xhi
4.890871801179058 22.00212819882104 ylo yhi
4.244154333077146 21.840845666922608 zlo zhi
-0.3250333345181185 -0.07881207786116316 -0.21204579224960807 xy xz yz

Masses

1 55.845
2 32.065
3 12.0107
4 1.00794
5 14.0067
6 12.0107
7 1.00794

PairIJ Coeffs # lj/cut/coul/long

1 1 0.013 2.5943 12.5
1 2 0.0596825 3.09454 12.5
1 3 0.0369459 3.01257 12.5
1 4 0.0239165 2.58272 12.5
1 5 0.02995 2.92749 12.5
1 6 0.0369459 3.01257 12.5
1 7 0.0239165 2.58272 12.5
2 2 0.274 3.59478 12.5
2 3 0.169617 3.51281 12.5
2 4 0.1098 3.08296 12.5
2 5 0.137499 3.42773 12.5
2 6 0.169617 3.51281 12.5
2 7 0.1098 3.08296 12.5
3 3 0.105 3.43085 12.5
3 4 0.0679706 3.00099 12.5
3 5 0.0851176 3.34577 12.5
3 6 0.105 3.43085 12.5
3 7 0.0679706 3.00099 12.5
4 4 0.044 2.57113 12.5
4 5 0.0550999 2.91591 12.5
4 6 0.0679706 3.00099 12.5
4 7 0.044 2.57113 12.5
5 5 0.069 3.26069 12.5
5 6 0.0851176 3.34577 12.5
5 7 0.0550999 2.91591 12.5
6 6 0.105 3.43085 12.5
6 7 0.0679706 3.00099 12.5
7 7 0.044 2.57113 12.5

Bond Coeffs # harmonic

1 192.938 2.24431
2 462.655 1.37926
3 357.44 1.08142
4 320.755 1.74901
5 528.635 1.45107
6 331.069 1.1094

Dihedral Coeffs # harmonic

1 3.36856 -1 2
2 1.97642 1 2
3 0.05425 1 3

Atoms # full

1 444 1 0.2491 31.107913274142312 6.923701503729087 13.96323187114448 0 0 0
2 444 2 -0.1242 31.43718949528236 9.0541358665073 14.557686449060709 0 0 0
3 444 1 0.2491 30.09787055502489 7.608444832258111 11.233091104163302 0 0 0
4 444 2 -0.1242 30.30842417236012 9.821167159921671 11.521841663408834 0 0 0
5 444 1 0.2491 32.25890424847483 9.296562838399852 12.4938004234484 0 0 0
6 444 1 0.2491 29.463642525881454 9.409053045830108 13.554378606289166 0 0 0
7 444 2 -0.1242 32.134252407077625 7.125629601371626 11.992320209446756 0 0 0
8 444 2 -0.1242 29.0441617944212 7.240762154534922 13.17006541960724 0 0 0
9 444 1 0.2491 29.14458912751855 16.75587399541775 21.049529771561467 0 0 0
10 444 2 -0.1242 30.439423585490637 15.462744418562767 4.576839393347106 0 0 1
11 444 1 0.2491 31.212010245964535 18.92733857124241 21.388385179674778 0 0 0
12 444 2 -0.1242 32.71130938009396 17.826398551681944 4.909125574870619 0 0 1
13 444 1 0.2491 32.06677205379268 16.07788557874142 20.98091732462688 0 0 0
14 444 1 0.2491 30.880156852582623 17.1403610058134 5.9888164904554735 0 0 1
15 444 2 -0.1242 30.82152282973997 17.458176165514402 19.738369937115525 0 0 0
16 444 2 -0.1242 29.483933723619977 18.578984930312664 4.988646267216284 0 0 1
17 444 1 0.2491 19.1799218691813 8.99246789993914 13.209768359696575 0 0 0
18 444 2 -0.1242 17.91088439606952 9.878180853140814 14.830341287128771 0 0 0
19 444 1 0.2491 16.78957225694931 8.266389604773092 11.513991564635225 0 0 0
20 444 2 -0.1242 15.320910449270992 9.132033701726371 12.961152402837254 0 0 0
21 444 1 0.2491 16.78799261802228 10.806562023175148 13.138488985060121 0 0 0
22 444 1 0.2491 16.59622641665388 8.108228754788652 14.48720112459994 0 0 0
23 444 2 -0.1242 18.142912592547802 10.040056485705328 11.531904909740977 0 0 0
24 444 2 -0.1242 17.96970234417305 7.107328905714639 13.030112903060088 0 0 0
25 444 1 0.2491 25.770253809219646 8.51041492131712 21.06536267465473 0 0 0
26 444 2 -0.1242 24.668798102015877 6.688395123094216 21.757647046929087 0 0 0
27 444 1 0.2491 23.340465952777144 10.286070951949963 21.211873365282052 0 0 0
28 444 2 -0.1242 22.066640646653003 8.86274516381978 4.3085182412492005 0 0 1
29 444 1 0.2491 23.788868223739016 8.308932516758128 5.624276513667322 0 0 1
30 444 1 0.2491 23.06550022937384 7.416425211581583 20.377490251569636 0 0 0
31 444 2 -0.1242 25.06156104856327 10.06645673405063 5.064670452137708 0 0 1
32 444 2 -0.1242 24.2460995665421 9.118789644268267 19.54898953601237 0 0 0
33 444 1 0.2491 10.451803834556266 10.03667887947492 20.105971163289205 0 0 -1
34 444 2 -0.1242 12.193082764616099 9.198478492037337 21.248553715445453 0 0 -1
35 444 1 0.2491 8.692937063621946 10.200892509376548 4.899454010619489 0 0 0
36 444 2 -0.1242 10.25484114554099 9.358016796408087 6.249214608146827 0 0 0
37 444 1 0.2491 11.602258939551344 10.838351232278685 5.25181137203418 0 0 0
38 444 1 0.2491 10.748034000702416 8.022359818408406 4.528920085960311 0 0 0
39 444 2 -0.1242 9.913116039616934 11.59103399446471 21.631218308145463 0 0 -1
40 444 2 -0.1242 8.982809356057246 8.524903345199755 20.847933367223177 0 0 -1
41 444 1 0.2491 22.69075254135896 16.56066267325952 14.001678147987299 0 0 0
42 444 2 -0.1242 22.853757508167266 18.78771204612968 13.957726765219958 0 0 0
43 444 1 0.2491 24.485352127403246 16.186028402985997 11.600425662556397 0 0 0
44 444 2 -0.1242 24.841239591001596 18.384187549105558 11.348590158246308 0 0 0
45 444 1 0.2491 25.022517225290024 18.395679883628777 13.580820301401054 0 0 0
46 444 1 0.2491 22.644598773328845 18.551529035659748 11.74230469481217 0 0 0
47 444 2 -0.1242 24.88352597037681 16.175032506018038 13.800453788444823 0 0 0
48 444 2 -0.1242 22.263920855555348 16.34559398829984 11.816000043594817 0 0 0
49 444 1 0.2491 16.883245921610595 18.458587178202976 20.520653606474745 0 0 -1
50 444 2 -0.1242 15.407824266007632 17.05210084769115 21.46937290588624 0 0 -1
51 444 1 0.2491 19.28471758057125 17.192448117131995 21.78017342549817 0 0 -1
52 444 2 -0.1242 18.157018102627568 15.874431523430353 5.271693725624619 0 0 0
53 444 1 0.2491 16.923221102470862 15.47844202596885 20.96141157734911 0 0 -1
54 444 1 0.2491 16.75925914572641 17.556531767683538 5.692245504473155 0 0 0
55 444 2 -0.1242 18.27307345524952 16.848398988506506 19.815425665550254 0 0 -1
56 444 2 -0.1242 18.076234618943527 19.11817379378654 4.798706688295973 0 0 0
57 444 1 0.2491 10.832080232690304 17.00620086102373 14.264790674124418 0 0 0
58 444 2 -0.1242 12.20665410942138 18.55148460088296 15.118549016955267 0 0 0
59 444 1 0.2491 10.817367377015609 18.235348334324627 11.527185423025832 0 0 0
60 444 2 -0.1242 12.231588484816772 19.876723722626508 12.093812864731403 0 0 0
61 444 1 0.2491 13.352215559998903 18.303531275787375 13.209474675281282 0 0 0
62 444 1 0.2491 10.975652119676816 20.001033579980334 13.939843213510997 0 0 0
63 444 2 -0.1242 12.080983786984032 16.631693410280864 12.446668574888989 0 0 0
64 444 2 -0.1242 9.45708458468216 18.480486350436987 13.281141640108613 0 0 0
65 444 3 -0.1633 28.620770026269156 10.272960962121505 18.498411108920056 0 0 0
66 444 3 0.2206 27.888049099583306 9.118649726786352 18.791579350035867 0 0 0
67 444 3 -0.1633 27.13190185955564 8.49651369897512 17.79532683237235 0 0 0
68 444 3 -0.1633 27.12430953156433 9.010482306900512 16.49551700403886 0 0 0
69 444 3 0.2206 27.88422851334272 10.141111949357303 16.190594366089286 0 0 0
70 444 3 -0.1633 28.630759633596796 10.77765931178038 17.18920594395528 0 0 0
71 444 4 0.0883 29.21202878405397 11.658922095170004 16.950005332936193 0 0 0
72 444 4 0.0883 29.184977826639468 10.768438070487333 19.277682729795767 0 0 0
73 444 4 0.0883 26.530783515960074 7.628858261500753 18.03297639086745 0 0 0
74 444 2 -0.6955 27.9464606898298 10.71176472256375 14.545900084144932 0 0 0
75 444 2 -0.6955 27.897040042514902 8.443140743181468 20.399480139178547 0 0 0
76 444 4 0.0883 26.541323496094464 8.522039159964274 15.724614258298566 0 0 0
77 444 3 -0.1633 28.244898493470444 17.09418374788539 8.566651691442186 0 0 0
78 444 3 0.2206 29.404850471450537 16.337258420516054 8.753666807974058 0 0 0
79 444 3 -0.1633 29.33385234358382 15.095008482868538 9.392882847973194 0 0 0
80 444 3 -0.1633 28.100550486518927 14.615838463653292 9.859796247647633 0 0 0
81 444 3 0.2206 26.936584543270513 15.36479597134553 9.655667680239947 0 0 0
82 444 3 -0.1633 27.010669753364816 16.606598567754038 9.013537013715696 0 0 0
83 444 4 0.0883 26.11683511277012 17.19623791830807 8.86249621439595 0 0 0
84 444 4 0.0883 28.299512156922745 18.056315104569105 8.07344849340383 0 0 0
85 444 4 0.0883 30.232985344009457 14.510645870135296 9.541039581507352 0 0 0
86 444 2 -0.6955 25.381703947396034 14.734085341190903 10.154448324849563 0 0 0
87 444 2 -0.6955 30.942366040133756 16.969289000098414 8.217563165933758 0 0 0
88 444 4 0.0883 28.049032097882765 13.657098851600782 10.358006619335123 0 0 0
89 444 3 -0.1633 15.109005972373827 10.458037445825019 7.0658023021755 0 0 0
90 444 3 0.2206 13.835568912430663 10.857418858100562 7.485395973320313 0 0 0
91 444 3 -0.1633 13.233384574926612 10.239203798578856 8.584971827122754 0 0 0
92 444 3 -0.1633 13.894181599382065 9.201778419182954 9.253363463989919 0 0 0
93 444 3 0.2206 15.154480692293246 8.78070321958523 8.816861478793674 0 0 0
94 444 3 -0.1633 15.774138669441431 9.422963403390387 7.739314049040418 0 0 0
95 444 4 0.0883 16.753754217827098 9.102497435158865 7.409519304208683 0 0 0
96 444 4 0.0883 15.568221428104383 10.931801239622878 6.207231900925133 0 0 0
97 444 4 0.0883 12.242987375446155 10.541642881739612 8.892337281884751 0 0 0
98 444 2 -0.6955 15.942871742945725 7.445637064521063 9.621278157604104 0 0 0
99 444 2 -0.6955 12.93842151077212 12.043951073504912 6.573928216065266 0 0 0
100 444 4 0.0883 13.43012890414767 8.722461264933012 10.102741560845669 0 0 0
101 444 3 -0.1633 26.1176427044107 8.55717465211099 8.338303652193403 0 0 0
102 444 3 0.2206 25.159782798565956 7.540302448753959 8.346166350068705 0 0 0
103 444 3 -0.1633 25.520639441479055 6.239801171625336 8.712041223660524 0 0 0
104 444 3 -0.1633 26.847807756091754 5.9572052323271825 9.067226127417571 0 0 0
105 444 3 0.2206 27.809612455360238 6.972394213155835 9.030030807550064 0 0 0
106 444 3 -0.1633 27.442103913655544 8.274437197201093 8.682579190775728 0 0 0
107 444 4 0.0883 28.178015402443272 9.065905338731554 8.67706999154976 0 0 0
108 444 4 0.0883 25.841223391280508 9.55828632501068 8.036153733452586 0 0 0
109 444 4 0.0883 24.778388208830158 5.451295248770788 8.708030423878066 0 0 0
110 444 2 -0.6955 29.487276614397167 6.610435984087299 9.341083215023191 0 0 0
111 444 2 -0.6955 23.544334952477982 7.8978704508458994 7.79925588974494 0 0 0
112 444 4 0.0883 27.13152330311992 4.947258609987673 9.330625084349828 0 0 0
113 444 3 -0.1633 13.281459435694893 9.837750280668965 17.918523841944584 0 0 0
114 444 3 0.2206 12.019729256427489 9.573289598429664 17.376859872150025 0 0 0
115 444 3 -0.1633 11.863676708384563 8.55375849967892 16.43316069730421 0 0 0
116 444 3 -0.1633 12.97579172622122 7.798720521581641 16.032691953521322 0 0 0
117 444 3 0.2206 14.229578587390954 8.045003193208068 16.60175939551862 0 0 0
118 444 3 -0.1633 14.387438439172927 9.07829910377122 17.526705160013634 0 0 0
119 444 4 0.0883 15.361990909895614 9.286824001688132 17.947277102634843 0 0 0
120 444 4 0.0883 13.400852862526195 10.601220953713796 18.674017722172948 0 0 0
121 444 4 0.0883 10.886701695639493 8.337226158409944 16.019769300286498 0 0 0
122 444 2 -0.6955 15.59958346466714 7.056078085909913 16.176868156886847 0 0 0
123 444 2 -0.6955 10.641254715744687 10.496048183585597 17.921964823479335 0 0 0
124 444 4 0.0883 12.859044948546615 7.004853502882321 15.30627614854505 0 0 0
125 444 3 -0.1633 27.745036483906794 16.68785407462605 17.510177948517583 0 0 0
126 444 3 0.2206 27.005047587272585 17.054471158927758 18.638845704984316 0 0 0
127 444 3 -0.1633 26.1154457088969 18.132146581686722 18.573108540587764 0 0 0
128 444 3 -0.1633 25.97194504563592 18.84839780763797 17.37625187925858 0 0 0
129 444 3 0.2206 26.73588287483561 18.500701319704877 16.255864107293384 0 0 0
130 444 3 -0.1633 27.615115470622342 17.41522450993856 16.31932131657682 0 0 0
131 444 4 0.0883 28.19826162588813 17.138607626962074 15.450786274657348 0 0 0
132 444 4 0.0883 28.434082019690784 15.854516000714467 17.562239160911464 0 0 0
133 444 4 0.0883 25.536260402010377 18.409009581771752 19.444695617621697 0 0 0
134 444 2 -0.6955 26.59734912159884 19.42680846129418 14.779583928651483 0 0 0
135 444 2 -0.6955 27.18998130332411 16.158571731949987 20.127767529836113 0 0 0
136 444 4 0.0883 25.28463110693928 19.68156916769958 17.322868780624574 0 0 0
137 444 3 -0.1633 15.456336192155279 17.92471172948629 16.02051812954403 0 0 0
138 444 3 0.2206 15.97761152483043 18.669778791859425 14.96044106997635 0 0 0
139 444 3 -0.1633 16.690928016550046 19.84462091853814 15.224548118124963 0 0 0
140 444 3 -0.1633 16.854126095582114 20.287735540883922 16.545160201263602 0 0 0
141 444 3 0.2206 16.276200366204392 19.56953046703315 17.59524875423859 0 0 0
142 444 3 -0.1633 15.58951406766939 18.381743085077893 17.336222481110145 0 0 0
143 444 4 0.0883 15.139125402640925 17.832445326244777 18.151187272946075 0 0 0
144 444 4 0.0883 14.885944983285084 17.035327044717484 15.813042244295305 0 0 0
145 444 4 0.0883 17.100526575718384 20.42483781065709 14.415057421400093 0 0 0
146 444 2 -0.6955 16.320838518261603 20.185764899757153 19.226616194560602 0 0 0
147 444 2 -0.6955 15.586053096746223 18.198307416399388 13.319114699593005 0 0 0
148 444 4 0.0883 17.376221948353056 21.21452307847442 16.740676659532816 0 0 0
149 444 3 -0.1633 12.322024677607436 16.667196394429556 8.735809440200763 0 0 0
150 444 3 0.2206 11.60277675831758 17.854034959792994 8.58912276435425 0 0 0
151 444 3 -0.1633 12.196464095697758 18.96496885064853 7.985667971452158 0 0 0
152 444 3 -0.1633 13.549483398178623 18.92489679895537 7.630208939359512 0 0 0
153 444 3 0.2206 14.297197722395385 17.768716390323156 7.874507696812931 0 0 0
154 444 3 -0.1633 13.669664145117968 16.622380638279246 8.371898038018236 0 0 0
155 444 4 0.0883 14.235097880340712 15.725781124162825 8.562530478309336 0 0 0
156 444 4 0.0883 11.872684567110696 15.815207735740607 9.226879109211707 0 0 0
157 444 4 0.0883 11.630494394810993 19.87128492964557 7.848972317812676 0 0 0
158 444 2 -0.6955 16.037503454780403 17.82684253763737 7.771861665079986 0 0 0
159 444 2 -0.6955 10.087351074887783 18.026094323170838 9.426384301600654 0 0 0
160 444 4 0.0883 14.02822577791039 19.805905459468736 7.224175453619591 0 0 0
161 444 3 -0.1633 33.59068326310886 11.60691244338357 9.627436554968812 0 0 0
162 444 3 0.2206 6.991167984394057 10.492290267681451 10.283561013399332 1 0 0
163 444 3 -0.1633 7.425679218132302 9.388474043416029 9.544594907968877 0 0 0
164 444 3 -0.1633 7.31966311068303 9.394158514126769 8.147546386525011 0 0 0
165 444 3 0.2206 33.92055209012667 10.50893545069357 7.487155543234951 -1 0 0
166 444 3 -0.1633 33.49092129369735 11.615624053246293 8.228273067839611 0 0 0
167 444 4 0.0883 33.02832063163267 12.455610921252585 7.7297491458432335 0 0 0
168 444 4 0.0883 33.21972896204333 12.446064035609915 10.202120560746744 0 0 0
169 444 4 0.0883 7.804367909563461 8.51488197995126 10.0569585994294 0 0 0
170 444 2 -0.6955 33.78106642624779 10.503670655595164 5.738372376092191 -1 0 0
171 444 2 -0.6955 6.999864199768845 10.416525979418143 12.03028702226195 1 0 0
172 444 4 0.0883 7.646424416050595 8.533131750187808 7.581104855960477 0 0 0
173 444 3 -0.1633 6.8724674735507305 14.981603339454194 17.502414522859247 1 0 0
174 444 3 0.2206 7.346662114554093 15.120817248012123 18.810743576476362 1 0 0
175 444 3 -0.1633 8.682256589115065 15.470253665557562 19.035712379351402 1 0 0
176 444 3 -0.1633 9.565273461528895 15.593776664995929 17.953690873211592 0 0 0
177 444 3 0.2206 9.111737588467806 15.358381443228117 16.650546043827475 0 0 0
178 444 3 -0.1633 7.757348144802122 15.094654629107088 16.42061063337548 0 0 0
179 444 4 0.0883 7.406333248313171 14.907638801943115 15.414357939960997 0 0 0
180 444 4 0.0883 32.97043472149056 14.713047302807304 17.329405712069192 0 0 0
181 444 4 0.0883 9.052677943100404 15.563887525434971 20.04752030694099 1 0 0
182 444 2 -0.6955 10.267086235036414 15.138359841683247 15.354530329724179 0 0 0
183 444 2 -0.6955 33.49190528933143 14.579281776386505 20.14839846327501 0 0 0
184 444 4 0.0883 10.610785967947756 15.797990992639836 18.135835568428863 0 0 0
185 444 3 -0.1633 21.222749002908287 9.01176535083921 16.16224920205149 0 0 0
186 444 3 0.2206 21.74317064485689 8.449232014949146 14.993244369963174 0 0 0
187 444 3 -0.1633 22.452786132374538 7.246145417845385 15.050581047718552 0 0 0
188 444 3 -0.1633 22.602095086227852 6.580974626980321 16.275200192501092 0 0 0
189 444 3 0.2206 21.97430771311879 7.0815912697709855 17.421522997240857 0 0 0
190 444 3 -0.1633 21.31960374291176 8.317117154011628 17.372792066887627 0 0 0
191 444 4 0.0883 20.879786556983873 8.736124378940644 18.265679041171232 0 0 0
192 444 4 0.0883 20.691486004911567 9.953927989327946 16.12153430005307 0 0 0
193 444 4 0.0883 22.86653026395902 6.817710950057156 14.146697984188817 0 0 0
194 444 2 -0.6955 21.966561067990497 6.159132523322486 18.910413829760014 0 0 0
195 444 2 -0.6955 21.393696860219123 9.193431108343873 13.455109772722638 0 0 0
196 444 4 0.0883 23.1670496266007 5.6623918786748515 16.3163641994208 0 0 0
197 444 3 -0.1633 21.985227126813832 19.994696482505724 7.8391036586899 0 0 0
198 444 3 0.2206 21.411893561638898 19.214195349037333 8.850327513819561 0 0 0
199 444 3 -0.1633 20.915455455027594 17.943064185744817 8.552543012802241 0 0 0
200 444 3 -0.1633 20.992823018831224 17.447601098707334 7.246468772434375 0 0 0
201 444 3 0.2206 21.549106847962896 18.23060412426676 6.229360001763078 0 0 0
202 444 3 -0.1633 22.036275721489126 19.50949254190137 6.521346160187016 0 0 0
203 444 4 0.0883 22.454144945762494 20.123716140623166 5.734804615588402 0 0 0
204 444 4 0.0883 22.366185521475867 20.982012523320627 8.069189406911251 0 0 0
205 444 4 0.0883 20.480232440167015 17.341120659752598 9.336870629758018 0 0 0
206 444 2 -0.6955 21.54440489808733 17.62003256419807 4.587739053166323 0 0 0
207 444 2 -0.6955 21.29780384309991 19.811539361861566 10.490741845071497 0 0 0
208 444 4 0.0883 20.606779272665545 16.463885185195565 7.019914782910669 0 0 0
209 444 3 -0.1633 33.643159434037095 21.78721805479845 13.832271989732735 0 0 0
210 444 3 0.2206 33.38393598874828 5.019835489229294 15.054776609131217 0 0 0
211 444 3 -0.1633 7.0573002279704555 5.34946536710972 16.150704634612485 0 0 0
212 444 3 -0.1633 8.453932208543165 5.314754892438047 16.026462610950908 0 0 0
213 444 3 0.2206 9.0351898083312 4.994642907393217 14.7936033777783 0 1 0
214 444 3 -0.1633 7.903129725378462 21.79795691707576 13.695075696028379 1 0 0
215 444 4 0.0883 8.353308874145675 21.54357719931636 12.74501768724739 1 0 0
216 444 4 0.0883 33.02138542838354 21.541492183098057 12.98266887989 0 0 0
217 444 4 0.0883 33.73439691561159 5.620314127115227 17.09367044816148 -1 0 0
218 444 2 -0.6955 10.76956796757811 4.953383681420196 14.614067780339287 0 1 0
219 444 2 -0.6955 31.64650684311942 5.132211614454132 15.170226617905895 0 0 0
220 444 4 0.0883 9.078799151941324 5.5578556537513935 16.874935165549065 0 0 0
221 444 3 -0.1633 8.13934325684765 21.946734534805998 5.427327338710761 0 0 0
222 444 3 0.2206 9.31242194912711 5.197970286077589 4.375690796406903 0 0 0
223 444 3 -0.1633 8.754549035212733 4.961511188628683 20.655889650836947 1 0 -1
224 444 3 -0.1633 7.103509009847044 21.704702384947062 20.393264431391316 1 -1 -1
225 444 3 0.2206 33.38078155249721 21.37378621073986 21.44752855677352 0 0 0
226 444 3 -0.1633 6.812786586225324 21.57504923051728 5.163930205737615 0 0 1
227 444 4 0.0883 33.292130180995684 21.291267978749183 5.978979136537533 -1 0 1
228 444 4 0.0883 8.499947439311237 21.968392742470428 6.4448142386078215 0 0 0
229 444 4 0.0883 9.382611785092555 5.2790921003444495 19.84011107504291 1 0 -1
230 444 2 -0.6955 31.68072435179129 21.09502973872501 21.133705387883516 0 0 0
231 444 2 -0.6955 10.925818131044945 5.800972230198793 4.71359316599175 0 0 0
232 444 4 0.0883 6.729694574149947 21.716212836763667 19.377995437563865 1 -1 0
233 444 3 -0.1633 18.88255451824909 15.611782981296454 14.887353792924182 0 0 0
234 444 3 0.2206 20.080092659199373 14.887267137936098 14.899057357849403 0 0 0
235 444 3 -0.1633 20.132778413577036 13.620243243925989 14.315786653011706 0 0 0
236 444 3 -0.1633 18.98222088026739 13.064730183678536 13.74640353067879 0 0 0
237 444 3 0.2206 17.767836842119458 13.75991267732727 13.78123020524207 0 0 0
238 444 3 -0.1633 17.726485997702635 15.047327934674172 14.328440257930762 0 0 0
239 444 4 0.0883 16.815921012765664 15.624929044621778 14.299305683104103 0 0 0
240 444 4 0.0883 18.843605817418563 16.606997598923925 15.307586951245142 0 0 0
241 444 4 0.0883 21.060059045139408 13.062295813506424 14.308674959239877 0 0 0
242 444 2 -0.6955 16.31088387747686 12.990402171893322 13.167231640141598 0 0 0
243 444 2 -0.6955 21.521342041932265 15.563995411804793 15.620065478421534 0 0 0
244 444 4 0.0883 19.040431023357296 12.084723032580094 13.30385599258816 0 0 0
245 444 3 -0.1633 19.031072892874658 12.917792741100218 19.228159760258933 0 0 0
246 444 3 0.2206 18.17394880095106 12.762943650232394 20.32179291305696 0 0 -1
247 444 3 -0.1633 18.680084257626557 12.342865431207318 21.556069713141966 0 0 -1
248 444 3 -0.1633 20.059307832322453 12.164515279541318 21.720572825453367 0 0 -1
249 444 3 0.2206 20.924511295512133 12.387619934624439 20.644959518903597 0 0 0
250 444 3 -0.1633 20.40844327617293 12.72085685993491 19.3875689514733 0 0 0
251 444 4 0.0883 21.071597499203982 12.915251972416277 18.55707888480287 0 0 0
252 444 4 0.0883 18.645416275250014 13.273525458265011 18.28097600062098 0 0 0
253 444 4 0.0883 18.097417094233272 12.461407387578816 4.810587232949491 0 0 0
254 444 2 -0.6955 22.651293384217933 12.374387708956327 20.90851862759946 0 0 0
255 444 2 -0.6955 16.553528745493676 13.398610883316227 20.2397034672802 0 0 -1
256 444 4 0.0883 20.538273580763974 12.122362764946274 5.096503528151572 0 0 0
257 445 5 0.08172 12.305562116246286 21.402382697628738 18.457169348937313 0 -1 0
258 445 6 -0.21538 13.258655349649082 21.319657174228226 17.33080073426379 0 -1 0
259 445 6 -0.21538 12.959261570432853 20.935690088644016 19.697598847176366 0 -1 0
260 445 6 -0.21538 12.200440105302102 5.694614876857434 18.62459993062995 0 0 0
261 445 6 -0.21538 11.131645918479162 20.549330689334365 18.17413387988542 0 -1 0
262 445 7 0.14832 12.824538321988364 21.734688647752527 16.393016679706253 0 -1 0
263 445 7 0.14832 14.518011201299569 4.774696693445121 17.54302104884138 0 0 0
264 445 7 0.14832 13.556361427255354 20.271615642888968 17.126179425064517 0 -1 0
265 445 7 0.14832 12.257855179087397 20.959261504567728 20.563125751377285 0 -1 0
266 445 7 0.14832 13.830272457322712 21.574525170808684 19.958463952656633 0 -1 0
267 445 7 0.14832 13.336559865167686 19.893647759385008 19.590384675973326 0 -1 0
268 445 7 0.14832 13.07371339353207 6.377449274491372 18.72203746744559 0 0 0
269 445 7 0.14832 11.599375376974631 6.036447855828175 17.752507198167176 0 0 0
270 445 7 0.14832 11.582979772624856 5.8280369661432445 19.53607323302588 0 0 0
271 445 7 0.14832 10.393016669524059 20.585690019809054 19.004523500973136 0 -1 0
272 445 7 0.14832 11.427202568853826 19.485377099263037 18.038067030419043 0 -1 0
273 445 7 0.14832 10.61275311675538 20.869435709946575 17.243204868426883 0 -1 0
274 446 5 0.08172 29.638444579005593 19.58357488251233 11.919097109983968 -1 0 0
275 446 6 -0.21538 30.262710766264448 19.1419923876402 13.184561351054645 -1 0 0
276 446 6 -0.21538 28.538857335255393 18.662709912837883 11.565488582313423 -1 0 0
277 446 6 -0.21538 29.10255246790628 20.95031214311878 12.087495247363892 -1 0 0
278 446 6 -0.21538 30.64744537567818 19.580014990525182 10.83856373779367 -1 0 0
279 446 7 0.14832 31.108672977022096 19.805551632137618 13.473636555423509 -1 0 0
280 446 7 0.14832 29.52976005460502 19.161220630018548 14.024008621185056 -1 0 0
281 446 7 0.14832 30.65747608301897 18.104871203540462 13.102397296677557 -1 0 0
282 446 7 0.14832 28.011763366383086 18.997499807319098 10.644632753166293 -1 0 0
283 446 7 0.14832 27.78038345881457 18.60512650588776 12.374447615288899 -1 0 0
284 446 7 0.14832 28.91270079320048 17.629062132938113 11.388969276110673 -1 0 0
285 446 7 0.14832 28.64007980837335 21.327670504337526 11.146886741448887 -1 0 0
286 446 7 0.14832 28.322427835434922 20.98555139387416 12.882154076758107 -1 0 0
287 446 7 0.14832 29.90601860133591 21.663896957619627 12.37536683861961 -1 0 0
288 446 7 0.14832 30.19928482899344 19.88002251684134 9.863098171985952 -1 0 0
289 446 7 0.14832 31.087436148061073 18.566465834394347 10.696596389395875 -1 0 0
290 446 7 0.14832 31.480363810956632 20.284389877396286 11.057584663257765 -1 0 0
291 447 5 0.08172 30.833100046619002 7.626372921854276 5.573703768181504 0 0 0
292 447 6 -0.21538 31.306884991507715 7.673916836973518 21.824586423419724 0 0 -1
293 447 6 -0.21538 29.762718806788875 6.609187201958359 5.491130228263213 0 0 0
294 447 6 -0.21538 31.911823313282966 7.131178155239297 6.451431256658938 0 0 0
295 447 6 -0.21538 30.279846605258335 8.878662853454056 6.128675776998488 0 0 0
296 447 7 0.14832 32.17841023202068 8.664300854892844 4.261720923204507 0 0 0
297 447 7 0.14832 31.763720043694384 6.758982662638101 21.393111970547857 0 0 -1
298 447 7 0.14832 30.521922235609438 8.02873231560318 21.127191662066046 0 0 -1
299 447 7 0.14832 30.141898340582742 5.6512686891931345 5.073745286043871 0 0 0
300 447 7 0.14832 28.921921036746078 6.951835475788981 4.851279226354438 0 0 0
301 447 7 0.14832 29.33788465944177 6.3864745108251695 6.494730146612302 0 0 0
302 447 7 0.14832 31.5590054047804 6.991587171083521 7.495756310140165 0 0 0
303 447 7 0.14832 32.29597779400231 6.153163422611372 6.096821907152562 0 0 0
304 447 7 0.14832 32.763982611066616 7.840433289861357 6.4781583247215675 0 0 0
305 447 7 0.14832 29.90104103233287 8.72187380765756 7.160687579435018 0 0 0
306 447 7 0.14832 29.436295011695933 9.25942186777997 5.508640859906568 0 0 0
307 447 7 0.14832 31.0522606765469 9.677491501470552 6.183091710523085 0 0 0
308 448 5 0.08172 21.133808872453976 19.19517843589538 18.083122656342944 0 0 0
309 448 6 -0.21538 22.148378425642214 20.085692561288194 17.487402051616012 0 0 0
310 448 6 -0.21538 20.183526345006662 18.77004989582441 17.03283727181277 0 0 0
311 448 6 -0.21538 21.80279295104628 18.009531818455724 18.659836003737006 0 0 0
312 448 6 -0.21538 20.40833229432761 19.929203456849656 19.142369662170772 0 0 0
313 448 7 0.14832 22.828764144470366 20.505709024267215 18.262322963188225 0 0 0
314 448 7 0.14832 22.773466395945363 19.550759634627298 16.741200305517232 0 0 0
315 448 7 0.14832 21.662932246042388 20.941723701517034 16.971366254910947 0 0 0
316 448 7 0.14832 19.41455717314253 18.074067389945768 17.431356239053272 0 0 0
317 448 7 0.14832 20.704841963627594 18.243949365680976 16.203260252846608 0 0 0
318 448 7 0.14832 19.650477511317185 19.63928951379124 16.58816179688243 0 0 0
319 448 7 0.14832 21.070643215195975 17.31086855118796 19.119671087474895 0 0 0
320 448 7 0.14832 22.35527586186826 17.436140151873765 17.881429969415137 0 0 0
321 448 7 0.14832 22.525323185602165 18.297380267688766 19.456619191616312 0 0 0
322 448 7 0.14832 19.628918528975642 19.300813348236577 19.616142906511552 0 0 0
323 448 7 0.14832 19.902038671029363 20.833537806358827 18.734862390133316 0 0 0
324 448 7 0.14832 21.097959729905167 20.2653498493219 19.950468273884606 0 0 0
325 449 5 0.08172 33.56126395457879 10.400145223482099 18.02176222033803 -1 0 0
326 449 6 -0.21538 34.0261800620819 9.008757418703945 17.833253373423183 -1 0 0
327 449 6 -0.21538 7.025411182049362 10.96059161629318 19.251030645611134 0 0 0
328 449 6 -0.21538 33.9750130682702 11.218226121195666 16.861239778505066 -1 0 0
329 449 6 -0.21538 32.08894600501878 10.424667303222988 18.149324331527925 -1 0 0
330 449 7 0.14832 33.59269299119395 8.55430418477128 16.91308009572908 -1 0 0
331 449 7 0.14832 8.004219924271423 8.964699494496772 17.733437675244534 0 0 0
332 449 7 0.14832 33.74338139977981 8.363668327074038 18.694847053770175 -1 0 0
333 449 7 0.14832 33.82335339189186 12.003722521226747 19.417206710204123 -1 0 0
334 449 7 0.14832 8.133699529570315 10.988013477922498 19.190323061621477 0 0 0
335 449 7 0.14832 33.86706992337979 10.38084389824246 20.155344761405946 -1 0 0
336 449 7 0.14832 33.619717930348365 12.2670736391009 16.96038139994682 -1 0 0
337 449 7 0.14832 7.95301324361674 11.257159263609735 16.768818817205652 0 0 0
338 449 7 0.14832 33.56884483965805 10.81421680572814 15.907048871671124 -1 0 0
339 449 7 0.14832 31.745535605534144 9.823287618581436 19.020464742494298 -1 0 0
340 449 7 0.14832 31.592603728537213 10.017003579690476 17.243946781006148 -1 0 0
341 449 7 0.14832 31.713765055923197 11.46458562134463 18.295019970950687 -1 0 0
342 450 5 0.08172 10.876684889301792 11.626399320766184 13.020103501698344 0 0 0
343 450 6 -0.21538 9.791224904868091 11.682846109012264 14.02368045714463 0 0 0
344 450 6 -0.21538 10.362185774546795 11.041069542288902 11.765045252263176 0 0 0
345 450 6 -0.21538 11.37150708346546 12.99236879405607 12.74939997107894 0 0 0
346 450 6 -0.21538 11.982152055153403 10.790811430258302 13.535293069324982 0 0 0
347 450 7 0.14832 10.145054249720044 12.120417244588376 14.986109615790351 0 0 0
348 450 7 0.14832 8.94170122346883 12.310439239766758 13.667524502421912 0 0 0
349 450 7 0.14832 9.384493646352148 10.66938410396198 14.240768250893323 0 0 0
350 450 7 0.14832 11.160524416367812 10.960972078438827 10.99628909824493 0 0 0
351 450 7 0.14832 9.544197419436978 11.664201825132698 11.336366153397602 0 0 0
352 450 7 0.14832 9.941739825941696 10.023647934131644 11.933927882077585 0 0 0
353 450 7 0.14832 12.18291294801148 12.994817773188414 11.98646934464391 0 0 0
354 450 7 0.14832 10.554217450956697 13.656697631314545 12.385007036855159 0 0 0
355 450 7 0.14832 11.774732875469642 13.462682111991946 13.66873000649635 0 0 0
356 450 7 0.14832 12.83455409843556 10.762231098953931 12.820215824185688 0 0 0
357 450 7 0.14832 11.65103758370692 9.742405741172266 13.713398618661754 0 0 0
358 450 7 0.14832 12.369732641700853 11.178812713295498 14.502880497318786 0 0 0
359 451 5 0.08172 29.004059707690757 4.730800158145325 18.209083628655403 -1 0 0
360 451 6 -0.21538 29.390547043291498 20.549048478065107 18.1267224242705 -1 -1 0