
#------------------------------------------------------------------------------#
# simulation settings
#------------------------------------------------------------------------------#

##### simulation variables

variable        seed 	equal  301360
variable        T       equal  300	    #K
variable        p       equal  0.0 	#bar
variable        damp_T  equal  100 		  	#K
variable        damp_P  equal  1000.0	  	#bar
variable        dT      equal  1.0 		 	#fs
variable        kb      equal  0.0019872041

## system setup ##

units           real
atom_style      full
boundary        p p p

pair_style      lj/cut/coul/long 12.500
bond_style      harmonic
angle_style     hybrid fourier cosine/periodic
dihedral_style  harmonic
improper_style  fourier
kspace_style 	ewald 0.000001

dielectric      1.0
pair_modify     tail yes mix arithmetic
special_bonds   lj/coul 0.0 0.0 1.0
read_data       data.sow-4c_FeS-2c_B_S_new 				extra/bond/per/atom 40 				extra/angle/per/atom 40 				extra/dihedral/per/atom 40 				extra/improper/per/atom 40 				extra/special/per/atom 40
Reading data file ...
  triclinic box = (0 0 0) to (41.341 26.893 26.085) with tilt (0.004694 0 0)
  1 by 1 by 1 MPI processor grid
  reading atoms ...
  256 atoms
  scanning bonds ...
  43 = max bonds/atom
  scanning angles ...
  46 = max angles/atom
  scanning dihedrals ...
  46 = max dihedrals/atom
  scanning impropers ...
  42 = max impropers/atom
  reading bonds ...
  320 bonds
  reading angles ...
  608 angles
  reading dihedrals ...
  448 dihedrals
  reading impropers ...
  288 impropers
Finding 1-2 1-3 1-4 neighbors ...
  special bond factors lj:    0        0        1       
  special bond factors coul:  0        0        1       
     4 = max # of 1-2 neighbors
     9 = max # of 1-3 neighbors
    49 = max # of special neighbors
  special bonds CPU = 0.000 seconds
  read_data CPU = 0.002 seconds

include			emin_sow-4c_FeS-2c_B_S.param
### Parameters for Equilibration ###

### Parameters for MOF ###

mass 1 55.845000000
mass 2 32.065000000
mass 3 12.010700000
mass 4 1.007940000

pair_coeff 1 1 0.013000 2.594297
pair_coeff 2 2 0.274000 3.594776
pair_coeff 3 3 0.105000 3.430851
pair_coeff 4 4 0.044000 2.571134

bond_coeff 1 192.938150 2.244314
bond_coeff 2 462.655054 1.379256
bond_coeff 3 357.440381 1.081418
bond_coeff 4 320.755144 1.749010

angle_coeff 1 fourier 131.427607 0.343737 0.374972 0.281246
angle_coeff 2 fourier 106.220186 0.343737 0.374972 0.281246
angle_coeff 3 cosine/periodic 111.297508 -1 3
angle_coeff 4 cosine/periodic 57.289016 -1 3
angle_coeff 5 cosine/periodic 105.943006 -1 3
angle_coeff 6 fourier 115.321348 0.343737 0.374972 0.281246

dihedral_coeff 1 3.368555 -1 2
dihedral_coeff 2 1.976424 1 2

improper_coeff 1 2.000000 1.000000 -1.000000 0.000000 0

### Parameters for Molecule ###

mass 5 14.006700000
mass 6 12.010700000
mass 7 1.007940000

pair_coeff 5 5 0.069000 3.260689
pair_coeff 6 6 0.105000 3.430851
pair_coeff 7 7 0.044000 2.571134

bond_coeff 5 528.634538 1.451071
bond_coeff 6 331.069389 1.109401

angle_coeff 7 fourier 260.869388 0.317506 0.313225 0.272502
angle_coeff 8 fourier 169.780468 0.343737 0.374972 0.281246
angle_coeff 9 fourier 75.498766 0.343737 0.374972 0.281246

dihedral_coeff 3 0.054250 1 3



reset_timestep  0
fix             f0 all box/relax aniso ${p} vmax 0.001
fix             f0 all box/relax aniso 0 vmax 0.001
thermo          10
thermo_style    custom step lx ly lz press pxx pyy pzz
min_style       cg
minimize        1e-10 1e-10 100000 100000
WARNING: Using 'neigh_modify every 1 delay 0 check yes' setting during minimization (../min.cpp:187)
Ewald initialization ...
WARNING: System is not charge neutral, net charge = -16 (../kspace.cpp:327)
  using 12-bit tables for long-range coulomb (../kspace.cpp:342)
  G vector (1/distance) = 0.23205454
  estimated absolute RMS force accuracy = 0.0003686707
  estimated relative force accuracy = 1.1102409e-06
  KSpace vectors: actual max1d max3d = 739 9 3429
                  kxmax kymax kzmax  = 9 6 6
Generated 21 of 21 mixed pair_coeff terms from arithmetic mixing rule
Neighbor list info ...
  update every 1 steps, delay 0 steps, check yes
  max neighbors/atom: 2000, page size: 100000
  master list distance cutoff = 14.5
  ghost atom cutoff = 14.5
  binsize = 7.25, bins = 6 4 4
  1 neighbor lists, perpetual/occasional/extra = 1 0 0
  (1) pair lj/cut/coul/long, perpetual
      attributes: half, newton on
      pair build: half/bin/newton/tri
      stencil: half/bin/3d/tri
      bin: standard
WARNING: Inconsistent image flags (../domain.cpp:819)
Per MPI rank memory allocation (min/avg/max) = 69.7 | 69.7 | 69.7 Mbytes
   Step           Lx             Ly             Lz           Press           Pxx            Pyy            Pzz      
         0   41.341         26.893         26.085        -57525.822     -72005.8       -31255.684     -69315.983    
        10   40.92759       26.774848      25.832825     -53719.536     -66567.922     -29865.633     -64725.053    
        20   40.51418       26.653207      25.578047     -49743.314     -60936.526     -28369.025     -59924.391    
        30   40.10077       26.527407      25.320223     -45578.67      -55093.5       -26751.671     -54890.838    
        40   39.688679      26.396957      25.059606     -41216.561     -49036.495     -25001.109     -49612.078    
        50   39.283047      26.26236       24.798756     -36688.477     -42821.51      -23119.318     -44124.603    
        60   38.885579      26.122702      24.537906     -31988.423     -36455.752     -21090.582     -38418.934    
        70   38.498143      25.976447      24.277056     -27106.31      -29947.816     -18891.454     -32479.659    
        80   38.123508      25.821129      24.016206     -22031.338     -23317.606     -16487.307     -26289.102    
        90   37.766154      25.652362      23.755356     -16751.894     -16607.957     -13820.343     -19827.382    
       100   37.434399      25.460928      23.494506     -11252.903     -9914.1753     -10775.405     -13069.13     
       110   37.150372      25.221232      23.235238     -5529.373      -3528.4513     -7047.3386     -6012.3292    
       120   37.034397      24.952302      23.063969     -1394.2234      21.011967     -3187.6027     -1016.0794    
       130   37.125152      24.69904       23.08167       103.01576      64.630161      185.23993      59.177181    
       140   37.242315      24.748567      23.188775      16.397005     -40.95038      -5.6238264      95.765221    
       150   37.255092      24.742272      23.23113       327.01577      507.2029       99.242985      374.60144    
       160   37.255092      24.729922      23.243733      413.95395      655.56338      125.39683      460.90164    
       170   37.255092      24.710367      23.252028      371.47329      593.45819      108.95689      412.00478    
       180   37.255092      24.694862      23.254554      269.28871      434.68877      73.381923      299.79544    
       190   37.255092      24.679978      23.255014      138.84951      230.7433       28.274514      157.53071    
       200   37.214439      24.627201      23.231474      121.40008      205.52699      23.588331      135.08494    
       210   37.176314      24.550883      23.187534     -312.94005     -556.19741     -99.673216     -282.94953    
       220   37.093632      24.516523      23.144548      222.93543      365.06763      63.518184      240.22048    
       230   37.093632      24.487075      23.128675     -304.42772     -466.45931     -119.82154     -327.0023     
       240   37.01095       24.438091      23.06989       17.590656      41.097263     -6.2233673      17.898071    
       250   37.01095       24.412439      23.051684     -525.91389     -815.88306     -195.06842     -566.7902     
       260   36.893319      24.360019      22.963086     -135.04519     -149.311       -158.03012     -97.794464    
       270   36.895014      24.338752      22.953945     -422.38604     -654.74406     -155.80154     -456.61254    
       280   36.800471      24.305837      22.880566     -179.87782     -191.53626     -216.79804     -131.29916    
       290   36.802046      24.281053      22.870717     -462.13019     -717.70294     -167.10722     -501.5804     
       300   36.719364      24.256437      22.820569      206.07902      330.91486      67.263361      220.05885    
       310   36.719364      24.243186      22.805894     -231.00245     -351.01002     -94.843843     -247.1535     
       320   36.636682      24.216643      22.75563       409.96393      653.3585       148.94494      427.58834    
       330   36.636682      24.206129      22.742874      52.055083      86.337763      14.763741      55.063745    
       340   36.636682      24.192751      22.727        -393.59369     -623.41937     -147.98688     -409.37481    
       350   36.554394      24.164208      22.699033     -332.79811     -140.39554     -122.90715     -735.09165    
       360   36.566154      24.154445      22.645143     -277.61479     -666.17471     -136.80017     -29.869502    
       370   36.516843      24.130697      22.650946     -322.53654     -324.16524     -25.4313       -618.01308    
       380   36.514659      24.140908      22.617524     -498.09245     -736.59581     -333.92655     -423.75499    
       390   36.445626      24.127387      22.600778     -312.67916     -73.811602     -318.90803     -545.31785    
       400   36.434214      24.080294      22.566622     -117.90566     -245.37782      129.40704     -237.74621    
       410   36.417637      24.093333      22.541215     -436.35856     -619.09862     -295.22403     -394.75303    
       420   36.369851      24.061685      22.511958     -159.75774     -243.1679      -30.150795     -205.95452    
       430   36.324238      24.05149       22.500826     -288.99911     -115.93593     -140.77639     -610.28501    
       440   36.333367      24.032775      22.452983     -210.49951     -612.0038      -29.962983      10.468248    
       450   36.294137      24.038691      22.450737     -413.94065     -480.16179     -302.57615     -459.08402    
       460   36.260349      23.999057      22.418209     -301.41805     -513.27055     -11.356686     -379.62692    
       470   36.209511      23.961747      22.385399     -27.431601     -187.19403      303.94032     -199.0411     
       480   36.159962      23.970098      22.35083       35.896905      86.805812      28.73395      -7.8490467    
       490   36.129438      23.949843      22.317824      291.54767      279.78527      208.0954       386.76234    
       500   36.086231      23.945398      22.28108       238.85168      256.78307      18.470917      441.30105    
       510   36.056691      23.916539      22.275877      178.68884      252.33376      210.73238      73.000367    
       520   35.996138      23.895546      22.233026      430.4641       611.45469      304.43771      375.49989    
       530   35.987159      23.918117      22.202283      78.975192      85.450443     -226.97015      378.44528    
       540   35.951186      23.905535      22.188422     -115.03011     -32.340954     -311.55393     -1.1954651    
       550   35.898023      23.891503      22.168566     -330.19809     -91.757732     -444.08579     -454.75075    
       560   35.873152      23.852495      22.128679      89.187515      48.315891      36.407494      182.83916    
       570   35.825643      23.815672      22.116906      79.546534      132.78826      301.52986     -195.67852    
       579   35.801962      23.801742      22.078987      195.84323      26.776918      366.14414      194.60864    
Loop time of 0.342094 on 1 procs for 579 steps with 256 atoms

99.0% CPU use with 1 MPI tasks x no OpenMP threads

Minimization stats:
  Stopping criterion = energy tolerance
  Energy initial, next-to-last, final = 
      13414.7938568319   1399.68336529625    1399.6833652672
  Force two-norm initial, final = 44551.007 197.09357
  Force max component initial, final = 30454.708 113.51499
  Final line search alpha, max atom move = 6.1962112e-13 7.0336283e-11
  Iterations, force evaluations = 579 606

MPI task timing breakdown:
Section |  min time  |  avg time  |  max time  |%varavg| %total
---------------------------------------------------------------
Pair    | 0.0754     | 0.0754     | 0.0754     |   0.0 | 22.04
Bond    | 0.012811   | 0.012811   | 0.012811   |   0.0 |  3.74
Kspace  | 0.23293    | 0.23293    | 0.23293    |   0.0 | 68.09
Neigh   | 0.0028508  | 0.0028508  | 0.0028508  |   0.0 |  0.83
Comm    | 0.0017665  | 0.0017665  | 0.0017665  |   0.0 |  0.52
Output  | 0.00013929 | 0.00013929 | 0.00013929 |   0.0 |  0.04
Modify  | 0          | 0          | 0          |   0.0 |  0.00
Other   |            | 0.01619    |            |       |  4.73

Nlocal:            256 ave         256 max         256 min
Histogram: 1 0 0 0 0 0 0 0 0 0
Nghost:           1916 ave        1916 max        1916 min
Histogram: 1 0 0 0 0 0 0 0 0 0
Neighs:          21911 ave       21911 max       21911 min
Histogram: 1 0 0 0 0 0 0 0 0 0

Total # of neighbors = 21911
Ave neighs/atom = 85.589844
Ave special neighs/atom = 6.5
Neighbor list builds = 8
Dangerous builds = 0
unfix           f0


#------------------------------------------------------------------------------#
# deposit cations and minimization
#------------------------------------------------------------------------------#
reset_timestep  0

variable		a equal lx-3
variable 		b equal ly-3
variable 		c equal lz-3
variable		aa equal xy
variable 		bb equal xz
variable 		cc equal yz

region 			box prism 3 ${a} 3 ${b} 3 ${c} ${aa} ${bb} ${cc}
region 			box prism 3 32.8019619067756 3 ${b} 3 ${c} ${aa} ${bb} ${cc}
region 			box prism 3 32.8019619067756 3 20.8017422026223 3 ${c} ${aa} ${bb} ${cc}
region 			box prism 3 32.8019619067756 3 20.8017422026223 3 19.0789873674712 ${aa} ${bb} ${cc}
region 			box prism 3 32.8019619067756 3 20.8017422026223 3 19.0789873674712 0.00415444085446433 ${bb} ${cc}
region 			box prism 3 32.8019619067756 3 20.8017422026223 3 19.0789873674712 0.00415444085446433 0 ${cc}
region 			box prism 3 32.8019619067756 3 20.8017422026223 3 19.0789873674712 0.00415444085446433 0 0

variable		n_cation equal 16

##### create and deposit the cation

molecule 		TMA TMA.txt offset 4 4 6 2 1
Read molecule template TMA:
  1 molecules
  0 fragments
  17 atoms with max type 7
  16 bonds with max type 6
  30 angles with max type 9
  36 dihedrals with max type 3
  0 impropers with max type 0
fix 			DEPOSIT all deposit 16 0 1 ${seed} mol TMA region box near 1
fix 			DEPOSIT all deposit 16 0 1 301360 mol TMA region box near 1

run 			160
WARNING: No fixes with time integration, atoms won't move (../verlet.cpp:60)
Ewald initialization ...
  using 12-bit tables for long-range coulomb (../kspace.cpp:342)
  G vector (1/distance) = 0.23501899
  estimated absolute RMS force accuracy = 0.00037441145
  estimated relative force accuracy = 1.127529e-06
  KSpace vectors: actual max1d max3d = 602 7 1687
                  kxmax kymax kzmax  = 7 6 5
Generated 21 of 21 mixed pair_coeff terms from arithmetic mixing rule
WARNING: Inconsistent image flags (../domain.cpp:819)
Per MPI rank memory allocation (min/avg/max) = 65.37 | 65.37 | 65.37 Mbytes
   Step           Lx             Ly             Lz           Press           Pxx            Pyy            Pzz      
         0   35.801962      23.801742      22.078987      183.92469      14.937326      354.16748      182.66926    
        10   35.801962      23.801742      22.078987      1120030.1      1316946.9      663242.07      1379901.3    
        20   35.801962      23.801742      22.078987      1128774.9      1333664.3      667558.82      1385101.5    
        30   35.801962      23.801742      22.078987      1128774.9      1333664.3      667558.82      1385101.5    
        40   35.801962      23.801742      22.078987      1128774.9      1333664.3      667558.82      1385101.5    
        50   35.801962      23.801742      22.078987      1128774.9      1333664.3      667558.82      1385101.5    
        60   35.801962      23.801742      22.078987      1128774.9      1333664.3      667558.82      1385101.5    
        70   35.801962      23.801742      22.078987      1128774.9      1333664.3      667558.82      1385101.5    
        80   35.801962      23.801742      22.078987      1128774.9      1333664.3      667558.82      1385101.5    
        90   35.801962      23.801742      22.078987      1128774.9      1333664.3      667558.82      1385101.5    
       100   35.801962      23.801742      22.078987      1128774.9      1333664.3      667558.82      1385101.5    
       110   35.801962      23.801742      22.078987      1128774.9      1333664.3      667558.82      1385101.5    
       120   35.801962      23.801742      22.078987      1128774.9      1333664.3      667558.82      1385101.5    
       130   35.801962      23.801742      22.078987      1128774.9      1333664.3      667558.82      1385101.5    
       140   35.801962      23.801742      22.078987      1128774.9      1333664.3      667558.82      1385101.5    
       150   35.801962      23.801742      22.078987      1128774.9      1333664.3      667558.82      1385101.5    
       160   35.801962      23.801742      22.078987      1128774.9      1333664.3      667558.82      1385101.5    
Loop time of 0.184049 on 1 procs for 160 steps with 528 atoms

Performance: 75.110 ns/day, 0.320 hours/ns, 869.334 timesteps/s
99.8% CPU use with 1 MPI tasks x no OpenMP threads

MPI task timing breakdown:
Section |  min time  |  avg time  |  max time  |%varavg| %total
---------------------------------------------------------------
Pair    | 0.059562   | 0.059562   | 0.059562   |   0.0 | 32.36
Bond    | 0.0044467  | 0.0044467  | 0.0044467  |   0.0 |  2.42
Kspace  | 0.10299    | 0.10299    | 0.10299    |   0.0 | 55.96
Neigh   | 0.01417    | 0.01417    | 0.01417    |   0.0 |  7.70
Comm    | 0.0013089  | 0.0013089  | 0.0013089  |   0.0 |  0.71
Output  | 5.0251e-05 | 5.0251e-05 | 5.0251e-05 |   0.0 |  0.03
Modify  | 0.0013056  | 0.0013056  | 0.0013056  |   0.0 |  0.71
Other   |            | 0.000219   |            |       |  0.12

Nlocal:            528 ave         528 max         528 min
Histogram: 1 0 0 0 0 0 0 0 0 0
Nghost:           4556 ave        4556 max        4556 min
Histogram: 1 0 0 0 0 0 0 0 0 0
Neighs:          97174 ave       97174 max       97174 min
Histogram: 1 0 0 0 0 0 0 0 0 0

Total # of neighbors = 97174
Ave neighs/atom = 184.04167
Ave special neighs/atom = 8.1212121
Neighbor list builds = 16
Dangerous builds = 0

unfix 			DEPOSIT

reset_timestep  0
fix             f0 all box/relax aniso ${p} vmax 0.001
fix             f0 all box/relax aniso 0 vmax 0.001
thermo          10
thermo_style    custom step lx ly lz press pxx pyy pzz
min_style       cg
minimize        1e-10 1e-10 100000 100000
WARNING: Using 'neigh_modify every 1 delay 0 check yes' setting during minimization (../min.cpp:187)
Ewald initialization ...
  using 12-bit tables for long-range coulomb (../kspace.cpp:342)
  G vector (1/distance) = 0.23403332
  estimated absolute RMS force accuracy = 0.0003637064
  estimated relative force accuracy = 1.095291e-06
  KSpace vectors: actual max1d max3d = 602 7 1687
                  kxmax kymax kzmax  = 7 6 5
Generated 21 of 21 mixed pair_coeff terms from arithmetic mixing rule
WARNING: Inconsistent image flags (../domain.cpp:819)
Per MPI rank memory allocation (min/avg/max) = 67.14 | 67.14 | 67.14 Mbytes
   Step           Lx             Ly             Lz           Press           Pxx            Pyy            Pzz      
         0   35.801962      23.801742      22.078987      1128752.3      1333641.8      667536.29      1385078.9    
        10   36.145265      23.916788      22.299777      880124.61      1033735.3      523151.89      1083486.7    
        20   36.485892      24.032783      22.520567      686962.92      802532.2       411025.19      847331.37    
        30   36.82439       24.15003       22.741357      535134.23      621892.42      322802.15      660708.13    
        40   37.161046      24.268827      22.962147      414471.97      478999.79      252534.32      511881.8     
        50   37.495895      24.389503      23.182937      317539.99      364620.04      195904.27      392095.67    
        60   37.82868       24.512476      23.403727      238810.28      271978.52      149718.12      294734.21    
        70   38.158728      24.638359      23.624516      174093.51      196003.5       111559.19      214717.84    
        80   38.484623      24.768211      23.845306      120107.1       132774.34      79525.388      148021.56    
        90   38.803181      24.904302      24.066096      74042.275      79002.721      51958.187      91165.916    
       100   39.104372      25.053956      24.286886      32478.995      30843.683      26723.56       39869.743    
       110   39.13161       25.21633       24.389785     -9158.2034     -15345.938     -98.257118     -12030.415    
       120   38.77359       25.188232      24.198309     -11928.38      -16671.71      -3192.3735     -15921.057    
       130   38.418723      25.133804      23.981473     -10569.095     -13619.145     -3625.0462     -14463.093    
       140   38.092876      25.068081      23.760683     -8437.2946     -10028.59      -3466.4382     -11816.855    
       150   37.800275      24.991141      23.539893     -6338.5888     -6853.8878     -3154.5759     -9007.3028    
       160   37.537983      24.898542      23.319103     -4498.9898     -4385.0279     -2741.6606     -6370.2808    
       170   37.297247      24.784415      23.098313     -2960.381      -2651.3563     -2175.3981     -4054.3887    
       180   37.058917      24.642743      22.877524     -1710.5699     -1506.2721     -1452.0392     -2173.3983    
       190   36.790479      24.466819      22.656734     -757.81734     -713.77082     -710.192       -849.4892     
       200   36.459393      24.247083      22.437643     -249.50539     -297.31307     -215.00852     -236.19459    
       210   36.316185      24.160227      22.35569       451.65668      590.56559      244.77343      519.63102    
       220   36.316185      24.142958      22.352542     -891.70402     -1190.1211     -556.99458     -927.99634    
       230   36.244581      24.112065      22.313893      178.52269      244.78867      105.58151      185.19788    
       240   36.244581      24.108621      22.309978     -325.51734     -436.4814      -198.21728     -341.85334    
       250   36.244581      24.108074      22.307797     -541.50584     -729.66682     -327.00815     -567.84255    
       260   36.244581      24.108339      22.305246     -759.43798     -1026.3405     -456.63196     -795.34143    
       270   36.151975      24.09097       22.245302      670.52889      834.94323      466.59764      710.0458     
       280   36.151975      24.101461      22.243907      301.57002      437.84666      131.39996      335.46344    
       290   36.136315      24.106273      22.235247      328.05005      561.86532      69.857729      352.42709    
       300   36.13264       24.103296      22.227253      231.9842       281.1964       176.10707      238.64915    
       310   36.110055      24.105323      22.208274      590.2054       719.20641      283.67084      767.73896    
       320   36.103603      24.106962      22.203686      334.43197      369.39907      226.6503       407.24654    
       330   36.111214      24.107992      22.18846      -15.244324     -483.13265      174.63562      262.76407    
       340   36.084194      24.116219      22.184511      2.9151868     -106.68015      5.1131717      110.31254    
       350   36.078843      24.116486      22.18875      -401.30339     -528.3075      -91.345552     -584.25713    
       360   36.076537      24.108401      22.174922     -392.77828     -853.01205      150.72979     -476.05257    
       370   36.029595      24.105447      22.168882      29.80155       138.98998      372.22691     -421.81224    
       380   36.049825      24.129746      22.15032      -491.45571     -856.14708     -346.40663     -271.81342    
       390   36.028885      24.122667      22.146588     -489.44739     -772.27741     -145.25464     -550.81012    
       400   35.971054      24.13359       22.102447      176.48434      158.16117     -149.32371      520.61555    
       410   35.976273      24.139651      22.088562     -213.35935     -636.02086     -382.60689      378.54971    
       420   35.946202      24.123282      22.085717     -36.930626     -311.03979      88.087408      112.16051    
       430   35.922009      24.127989      22.065055     -28.628165     -349.74154      3.0089862      260.84806    
       440   35.895914      24.110183      22.052458      248.57497     -137.5767       540.12633      343.17528    
       450   35.871703      24.121629      22.060096     -188.58854     -176.47956      117.67692     -506.96297    
       460   35.852426      24.110105      22.041161      337.42131      273.82042      573.15818      165.28533    
       470   35.81626       24.125689      22.029017      185.44278      453.97406      139.8359      -37.481632    
       480   35.822572      24.115496      22.011422      205.32452     -73.966728      408.43597      281.50433    
       490   35.800684      24.136374      22.010922     -84.125725      43.264175     -207.10676     -88.534587    
       500   35.771362      24.134175      21.990679     -127.28049     -104.6036      -179.68716     -97.550708    
       510   35.768249      24.121772      21.975841     -161.57744     -581.72219      108.43061     -11.440725    
       520   35.717591      24.139816      21.960124      62.400316      270.14131     -293.45749      210.51713    
       530   35.723462      24.144075      21.963478     -346.80214     -260.83798     -536.24774     -243.32071    
       540   35.677292      24.132944      21.938464      86.908397      251.00042     -163.76921      173.49399    
       550   35.659474      24.114561      21.945368     -29.436855      171.67957      216.92563     -476.91577    
       560   35.634564      24.133235      21.930593     -196.80642      190.90501     -332.59799     -448.72629    
       570   35.632345      24.137219      21.922664     -518.70911     -347.2056      -562.1362      -646.78553    
       580   35.615466      24.078619      21.919853      124.99808     -106.31151      1065.1587     -583.85288    
       590   35.62195       24.145025      21.901964     -677.46277     -755.29201     -844.67742     -432.41887    
       600   35.583931      24.144631      21.880813      16.420776      261.80483     -634.90301      422.3605     
       610   35.58278       24.126956      21.885106     -256.96152     -282.40864     -320.56176     -167.91417    
       620   35.576498      24.100843      21.886931     -199.22714     -458.55005      316.05213     -455.1835     
       630   35.566419      24.093165      21.86171      -48.389133     -742.48771      521.46651      75.8538      
       640   35.555735      24.147109      21.867969     -1087.4539     -1222.9047     -1187.7785     -851.67847    
       650   35.503905      24.123174      21.838439     -139.49115     -177.75777     -356.49792      115.78225    
       660   35.50393       24.092012      21.848087     -344.93508     -721.32735      301.03162     -614.50951    
       670   35.461186      24.092824      21.821357      171.53965      0.88120473     383.93813      129.7996     
       680   35.418802      24.125193      21.805103      180.17603      649.35469     -478.79064      369.96405    
       690   35.42308       24.113939      21.796424     -125.43351     -176.40388     -354.96928      155.07264    
       700   35.418367      24.08189       21.808671     -284.13326     -555.80815      334.97025     -631.56187    
       710   35.378339      24.084059      21.780229      170.82298      30.98483       352.69689      128.78723    
       720   35.336754      24.114191      21.763513      173.44263      624.52574     -470.11036      365.91252    
       730   35.338308      24.101887      21.755668     -123.47738     -154.72242     -330.67363      114.9639     
       740   35.331838      24.071278      21.76561      -263.05874     -510.82588      321.89358     -600.24392    
       750   35.291751      24.072421      21.737452      161.53189      26.116536      339.26955      119.2096     
       760   35.251279      24.103218      21.72138       126.02117      580.06985     -524.4294       322.42306    
       770   35.250136      24.088252      21.712285     -121.59606     -158.62821     -318.98441      112.82444    
       780   35.242274      24.057319      21.721492     -246.00689     -493.46274      337.84187     -582.39981    
       790   35.200668      24.05929       21.693612      159.382        55.845196      310.89562      111.40518    
       800   35.160715      24.086983      21.676894      125.03458      554.88812     -494.53905      314.75467    
       810   35.156707      24.071754      21.667918     -115.53086     -136.86011     -299.54952      89.817053    
       820   35.147326      24.041326      21.675676     -224.50519     -449.52606      337.66625     -561.65576    
       830   35.105093      24.04235       21.647546      153.60119      56.453048      299.05787      105.29266    
       840   35.066453      24.069443      21.630816      94.639608      504.47485     -518.83865      298.28263    
       850   35.058691      24.051705      21.621379     -111.1018      -130.93721     -278.80624      76.438038    
       860   35.04783       24.021301      21.627682     -213.58631     -439.9885       341.01188     -541.7823     
       870   35.003731      24.021563      21.599761      149.51247      70.140743      283.28827      95.108404    
       880   34.965875      24.045855      21.582645      80.767444      457.22819     -497.05088      282.12502    
       890   34.953867      24.026863      21.572674     -103.49828     -115.66167     -256.46373      61.630572    
       900   34.941575      23.996116      21.577748     -199.3928      -420.92838      350.27424     -527.52426    
       910   34.895491      23.995175      21.549614      145.41907      77.827423      271.90273      86.52706     
       920   34.858362      24.01678       21.532115      67.040329      407.65541     -479.22561      272.69118    
       930   34.841813      23.995897      21.521715     -96.715878     -104.67642     -232.87944      47.408228    
       940   34.827523      23.964205      21.525476     -184.41254     -405.65913      367.30576     -514.88425    
       950   34.778204      23.961524      21.496754      142.0154       85.812206      263.58685      76.647144    
       960   34.740899      23.979744      21.478328      56.613559      354.66143     -454.78873      269.96798    
       970   34.71426       23.954904      21.466218     -92.883641     -81.958525     -205.06478      8.3723869    
       980   34.672865      23.960815      21.449466     -72.805794      256.25512     -620.26052      145.58802    
       990   34.667288      23.913143      21.459032     -376.96952     -555.96295      230.17931     -805.12491    
      1000   34.631518      23.924979      21.428063     -95.390622     -137.2746      -211.22476      62.327495    
      1010   34.61802       23.895105      21.433231     -163.59976     -355.5714       338.75844     -473.98634    
      1020   34.554095      23.883619      21.399595      147.42309      122.71208      222.84422      96.712965    
      1030   34.528274      23.895482      21.395751     -48.409427      310.4023      -336.98371     -118.64687    
      1040   34.520522      23.878185      21.383692     -68.48099      -88.705566     -118.35216      1.6147594    
      1050   34.49939       23.849446      21.392033     -235.66607     -244.31681      297.77451     -760.45593    
      1060   34.470014      23.837345      21.363369      159.53491     -36.302148      447.34987      67.557006    
      1070   34.441133      23.852198      21.351275      108.23079      274.62095     -168.04276      218.11419    
      1080   34.43004       23.837994      21.344871     -75.602626     -134.81093     -129.34466      37.347708    
      1090   34.413252      23.808923      21.357268     -194.59847     -203.87363      371.2742      -751.19597    
      1100   34.387699      23.800528      21.330352      160.98904     -11.937489      430.85791      64.046708    
      1110   34.360606      23.812951      21.318566      110.92997      255.31356     -136.76318      214.23954    
      1120   34.348639      23.798745      21.312372     -69.573758     -126.28337     -117.05483      34.616924    
      1130   34.332061      23.768255      21.326031     -200.60901     -202.01432      404.78832     -804.60104    
      1140   34.30615       23.760027      21.298438      162.98752      0.17618973     439.18287      49.603513    
      1150   34.280163      23.771246      21.286676      107.53821      235.86781     -117.43793      204.18474    
      1160   34.267075      23.756413      21.280527     -64.110283     -118.27075     -103.44406      29.383968    
      1170   34.249964      23.724904      21.29573      -216.83837     -190.72225      421.32781     -881.12068    
      1180   34.224599      23.714978      21.267165      166.0918      -8.0370972      479.64321      26.669288    
      1190   34.19916       23.726904      21.255457      92.09711       214.12868     -119.10212      181.26477    
      1200   34.18421       23.709949      21.248397     -64.64586      -132.02796     -91.851445      29.941825    
      1210   34.172057      23.670558      21.264185     -169.93332     -307.31068      661.51114     -864.00042    
      1220   34.136354      23.664278      21.232907      151.00975     -41.39696       462.86821      31.557992    
      1230   34.153081      23.698264      21.205237     -542.81229     -1277.4922     -938.06085      587.11622    
      1240   34.097638      23.668648      21.211777     -193.49473     -239.66235     -437.60639      96.784548    
      1250   34.059647      23.63956       21.208769     -24.593006      118.56978     -75.591387     -116.75741    
      1260   34.010727      23.612071      21.180146      152.6649       187.15866     -91.702466      362.53852    
      1270   34.006909      23.596009      21.188457     -335.74516     -428.0707      -162.91126     -416.2535     
      1280   33.970359      23.570076      21.182461     -46.096346      63.307136      226.66201     -428.25818    
      1290   33.958181      23.57296       21.171919      84.079498      252.30899      37.522367     -37.592867    
      1300   33.947411      23.560669      21.16617      -29.506337      5.2329013      5.2161388     -98.968051    
      1310   33.920856      23.594327      21.186596     -2259.7441     -1528.4167     -2665.2566     -2585.5588    
      1320   33.871414      23.491324      21.142147      27.524663     -84.625103      410.13054     -242.93144    
      1330   33.859517      23.506659      21.128459     -111.19516     -123.02029     -288.84082      78.275635    
      1340   33.830321      23.502535      21.147854     -766.28691     -139.11179     -869.21038     -1290.5386    
      1350   33.813133      23.459342      21.113749      345.19305      293.3395       403.38017      338.85949    
      1360   33.805227      23.455782      21.115778     -50.026597     -73.643521      37.317894     -113.75416    
      1370   33.775744      23.450747      21.091273      143.69951      127.3726      -300.09161      603.81753    
      1380   33.74774       23.43337       21.104527     -131.27856      281.03299     -349.76615     -325.10252    
      1390   33.756473      23.43541       21.076933      5.8983696     -197.65672     -535.03557      750.3874     
      1400   33.747903      23.43198       21.06642      -60.378624     -390.00411     -754.29633      963.16457    
      1410   33.716684      23.386687      21.085619      161.652        175.05422      234.68323      75.218553    
      1420   33.700681      23.373854      21.082422      86.693651      122.40465      186.93693     -49.260627    
      1430   33.670614      23.37973       21.077376     -91.984156      411.2613      -489.61172     -197.60205    
      1440   33.666126      23.345084      21.077057      9.3449568      153.98155      185.95505     -311.90174    
      1450   33.629399      23.352455      21.073225     -210.04437      521.88471     -599.73924     -552.2786     
      1460   33.612606      23.325396      21.057741     -229.97256      115.97073     -516.3243      -289.5641     
      1470   33.599057      23.287633      21.037992      55.893804     -120.53225     -18.424363      306.63803    
      1480   33.561524      23.251169      21.047809      476.78573      726.41776      817.69522     -113.7558     
      1490   33.576549      23.234487      21.039867     -593.46569     -1202.8684      51.380856     -628.90948    
      1500   33.529809      23.247615      21.041614     -854.53714     -504.99885     -932.84972     -1125.7629    
      1510   33.490708      23.178548      21.023551      384.03671      424.25114      875.99839     -148.13941    
      1520   33.481164      23.177898      21.004802      178.64852     -17.498635      274.19891      279.24529    
      1530   33.467562      23.171085      21.017137     -258.09932     -151.11406     -47.87502      -575.30887    
      1540   33.446882      23.1549        20.998406     -56.25089      -104.91285     -91.085823      27.245997    
      1550   33.426885      23.130196      21.019846     -269.42253      79.381719      220.86479     -1108.5141    
      1560   33.417962      23.130298      20.97826       264.23099      79.140165      43.677588      669.87522    
      1570   33.36046       23.091327      20.980977      786.53576      1281.3461      641.67337      436.58777    
      1580   33.351497      23.058217      20.999805      431.48598      953.52779      1011.695      -670.76485    
      1590   33.322323      23.063826      20.958163     -23.569356      209.4306      -586.89225      306.75359    
      1600   33.275301      22.986388      20.954964      395.26974      492.4956       540.11241      153.2012     
      1610   33.234048      22.966882      20.919311     -609.00541     -770.20112     -1175.4519      118.63675    
      1620   33.252708      22.921974      20.947876     -1317.2143     -2170.9343     -744.72507     -1035.9836    
      1630   33.198658      22.930864      20.915995     -400.19972     -476.76946     -949.98465      226.15495    
      1640   33.174767      22.890486      20.920924      71.635262      25.676168     -59.539335      248.76895    
      1650   33.168016      22.856959      20.922252      242.31247     -16.128415      719.65797      23.407855    
      1660   33.10083       22.845294      20.903996      385.61582      825.26512     -272.88393      604.46626    
      1670   33.110745      22.830205      20.881835      483.73319      164.93459     -98.28495       1384.5499    
      1680   33.081479      22.783751      20.904876     -84.924406     -151.63333     -19.138809     -84.001078    
      1690   33.070997      22.774817      20.899926     -117.66653     -177.02726     -56.283972     -119.68835    
      1700   33.051638      22.767735      20.886584     -44.806701      13.898449     -165.40593      17.087378    
      1710   33.015542      22.726565      20.881235      134.3072       196.84707     -6.0789794      212.15351    
      1720   32.997853      22.704001      20.877393      119.69896      154.22891      98.64827       106.2197     
      1730   32.964367      22.668097      20.868608     -9.1921511      8.9810081     -15.96681      -20.590652    
      1740   32.9549        22.638528      20.870284     -11.176056     -196.62266      288.77204     -125.67755    
      1750   32.920732      22.6273        20.855645      17.923435      139.18107      29.032511     -114.44328    
      1760   32.890038      22.603782      20.831448      435.91797      407.85869     -70.716696      970.61192    
      1770   32.868189      22.566583      20.881581     -135.84624      568.48103      277.52468     -1253.5444    
      1780   32.865918      22.564643      20.838178     -10.439584      15.283376     -30.23067      -16.371457    
      1790   32.835444      22.518831      20.861074      245.30923      542.3071       520.77998     -327.15938    
      1800   32.838051      22.526703      20.838584     -160.34982     -242.45325     -239.57118      0.9749588    
      1810   32.834383      22.535142      20.844972     -795.42578     -556.03759     -847.05822     -983.18153    
      1820   32.803675      22.500574      20.846369     -353.59113     -163.9709      -717.94264     -178.85985    
      1830   32.789816      22.484345      20.83152      -16.07561       210.37505     -64.488324     -194.11356    
      1840   32.757404      22.459404      20.802342      465.90258      710.31515     -2.8317556      690.22435    
      1850   32.764294      22.453461      20.816101     -49.131138      23.080095     -306.29963      135.82612    
      1860   32.780924      22.415257      20.800182      317.7115      -816.91633      684.78167      1085.2692    
      1870   32.717854      22.41646       20.813616     -114.15243      233.96701     -377.74141     -198.6829     
      1880   32.692762      22.399503      20.82474      -256.47038      396.99708     -366.20975     -800.19846    
      1890   32.69027       22.36686       20.796868     -145.72942     -446.28628     -426.71828      435.8163     
      1900   32.688127      22.335763      20.817651     -363.73854     -509.41015      260.97697     -842.78244    
      1910   32.622742      22.294043      20.798991      546.23739      998.76756      806.15336     -166.20876    
      1920   32.617983      22.275554      20.777717      49.106747     -272.71535      80.925848      339.10975    
      1930   32.589907      22.224609      20.792471     -279.58        -563.06792      60.908607     -336.58069    
      1940   32.528929      22.161381      20.764043     -121.32017     -311.77238     -127.94929      75.761142    
      1950   32.518996      22.124689      20.745682      1116.0613      144.94529      1756.7617      1446.4771    
      1960   32.47815       22.139179      20.763627     -212.64141     -127.6347      -147.24991     -363.03962    
      1970   32.439538      22.089418      20.764169      5.099043       89.518263     -23.79848      -50.422654    
      1980   32.411983      22.0876        20.759455     -1.4585567      586.59941     -143.13059     -447.84449    
      1990   32.36987       22.048433      20.738272     -180.82943      262.94931     -828.10102      22.663426    
      2000   32.365879      22.038108      20.731906      186.84975      386.98646     -243.25404      416.81683    
      2010   32.373114      22.010282      20.7447        45.941048     -113.84406      358.7788      -107.1116     
      2020   32.363469      22.016581      20.738004     -247.06885     -301.86982     -389.69367     -49.643068    
      2030   32.331751      21.96305       20.75369       240.64899      462.51552      1084.0725     -824.64106    
      2040   32.303986      21.992185      20.730272      61.656344      526.9692      -733.09642      391.09625    
      2050   32.316652      21.954641      20.728351      151.45355     -11.794021      495.05589     -28.901209    
      2060   32.298331      21.964026      20.730261     -430.34795     -71.492718     -654.1977      -565.35343    
      2070   32.302854      21.946489      20.728045     -469.78595     -731.24373     -362.2775      -315.83661    
      2080   32.268343      21.885275      20.724647      101.2998      -455.67056      1033.6983     -274.12837    
      2090   32.261475      21.910142      20.714722     -320.5727      -583.81811     -369.36819     -8.5317948    
      2100   32.234721      21.88108       20.722946      8.5518965     -33.725565      86.63233      -27.251075    
      2110   32.200964      21.870549      20.712633     -94.056148      209.01437     -89.681999     -401.50081    
      2120   32.158767      21.811172      20.697903      93.309331     -130.80958      94.482952      316.25462    
      2130   32.135557      21.795214      20.700121     -67.724154     -151.82102      65.005971     -116.35742    
      2140   32.114142      21.770801      20.695951     -101.13056     -346.5967      -25.633049      68.838061    
      2150   32.030148      21.68779       20.66762       729.60171      272.30811      853.09506      1063.4019    
      2160   32.023905      21.685019      20.689136     -6.7490276     -80.563162      266.13772     -205.82164    
      2170   31.991518      21.67179       20.684459     -45.248709      169.94711      129.24567     -434.9389     
      2180   31.968611      21.650899      20.673285      104.05448      73.660238      216.97672      21.526466    
      2190   31.955126      21.668337      20.65604      -110.19444     -60.143911     -928.34083      657.90144    
      2200   31.955032      21.632184      20.657649     -90.637741     -637.92384     -195.71723      561.72784    
      2210   31.924482      21.630071      20.671328     -249.31894      8.1537569     -442.08172     -314.02885    
      2220   31.900089      21.618663      20.650427      566.87273      796.18474      11.495905      892.93754    
      2230   31.905778      21.600117      20.665519     -137.01548     -182.78263     -44.30498      -183.95884    
      2240   31.820654      21.529237      20.655988      160.44441      233.42853      390.09532     -142.19061    
      2250   31.807409      21.53011       20.642682     -33.156538     -123.92368     -281.93854      306.3926     
      2260   31.794166      21.511605      20.647267     -397.07986     -583.95738     -241.39458     -365.88761    
      2270   31.748026      21.528629      20.647591     -1755.5529     -1259.0566     -2632.3278     -1375.2744    
      2280   31.724032      21.462739      20.635505      6.3584395     -23.998221      59.125888     -16.052348    
      2290   31.680862      21.414767      20.654741     -723.42136     -668.16505      41.450327     -1543.5494    
      2300   31.656811      21.445316      20.634674     -849.60584     -327.71566     -1285.7001     -935.40177    
      2310   31.63792       21.411885      20.619574     -1033.4542     -1263.6271     -1121.6549     -715.08052    
      2320   31.596245      21.376933      20.61408       107.9011       183.02772      91.390531      49.285055    
      2330   31.574229      21.357673      20.610367      99.488671      63.466224      97.596137      137.40365    
      2340   31.602344      21.345527      20.611849     -694.25243     -1722.8706      10.621831     -370.50848    
      2350   31.546094      21.33994       20.609807     -46.393774      32.050384      65.98503      -237.21674    
      2360   31.535228      21.345931      20.577846     -432.59524     -1117.5238     -1290.1836      1109.9216    
      2370   31.484809      21.305009      20.59826       434.82402      774.75782      395.73584      133.9784     
      2380   31.473204      21.308581      20.571239      408.59594      310.7573      -171.9943       1087.0248    
      2390   31.464046      21.292836      20.587799     -121.87077     -119.55363     -312.61179      66.553119    
      2400   31.4527        21.275334      20.597207     -95.087112      13.649574      34.443785     -333.3547     
      2410   31.414276      21.269102      20.589568      579.49587      1277.6334      300.65045      160.20373    
      2420   31.434971      21.26256       20.575517      115.3042      -234.12995     -88.226971      668.26953    
      2430   31.423907      21.265748      20.584942     -275.36035     -259.34141     -438.5046      -128.23503    
      2440   31.402136      21.239703      20.576732      98.706428     -99.389958      195.58634      199.9229     
      2450   31.392615      21.209064      20.599628     -378.53561     -498.0453       399.21849     -1036.78      
      2460   31.323759      21.17366       20.574628     -21.707913     -341.75435      688.90102     -412.2704     
      2470   31.283025      21.160845      20.558616      34.715169      28.501943      57.92863       17.714934    
      2480   31.287317      21.149478      20.573161     -680.1816      -984.63091     -147.34738     -908.56652    
      2490   31.245952      21.151801      20.531945     -143.36242     -647.44351     -850.62189      1067.9781    
      2500   31.218065      21.13553       20.555804     -87.466696      454.83813     -372.86108     -344.37713    
      2510   31.234721      21.113529      20.547133      87.914227     -193.99352      377.31926      80.416936    
      2520   31.206174      21.13542       20.539861     -154.60383      266.67002     -864.54078      134.05927    
      2530   31.194436      21.108422      20.541171     -122.58041      3.8839427     -351.77146     -19.853699    
      2540   31.145984      21.113087      20.533517     -180.79039      549.55636     -1282.8214      190.89387    
      2550   31.148927      21.071211      20.53085      -95.015414     -115.70069     -230.1115       60.765943    
      2560   31.085296      21.055265      20.535125     -105.32642      745.45775     -618.74442     -442.69257    
      2570   31.092886      21.037621      20.523899     -94.752568      127.07518     -353.34427     -57.988615    
      2580   31.017248      20.995962      20.519512      490.78895      1434.1154      149.63671     -111.38521    
      2590   30.983767      20.937507      20.502481     -303.34138     -664.42193     -99.676873     -145.92535    
      2600   30.972556      20.927458      20.492036      44.46849      -200.79337      149.64305      184.55579    
      2610   30.916485      20.909108      20.509453     -174.95314      656.034       -133.72473     -1047.1687    
      2620   30.906129      20.874762      20.482231     -96.530194     -232.0478       60.967702     -118.51048    
      2630   30.841181      20.847185      20.441467     -92.526841     -164.70939     -943.30173      830.43059    
      2640   30.832764      20.822168      20.465648     -173.66017     -83.442707     -136.88105     -300.65675    
      2650   30.797903      20.80867       20.477469     -294.01538      575.6931      -274.82409     -1182.9152    
      2660   30.773253      20.758487      20.445553      17.382257      8.0339111      280.40585     -236.29299    
      2670   30.764968      20.763748      20.441908     -4.7978061      3.2559243     -9.1283898     -8.5209528    
      2680   30.714502      20.73109       20.417079     -22.158767      14.225697     -649.36344      568.66144    
      2690   30.692015      20.691852      20.418148     -224.92639     -336.31884     -242.88849     -95.571848    
      2700   30.653378      20.681898      20.401983     -21.23376      -37.712413     -264.91951      238.93064    
      2710   30.595856      20.61487       20.396203      648.5483       1202.2943      567.44577      175.90487    
      2720   30.617385      20.628737      20.387641     -1.6599072     -336.51689      130.57731      200.95985    
      2730   30.59449       20.613265      20.38057       776.66044      922.28         582.81457      824.88675    
      2740   30.594133      20.624721      20.391462     -5.2767573      261.45932     -65.549903     -211.73969    
      2750   30.587459      20.601275      20.382012     -124.01976     -235.42282     -124.30255     -12.333903    
      2760   30.585775      20.576433      20.375612      461.20509     -96.135015      1032.8235      446.92678    
      2770   30.568393      20.588689      20.374687      0.4141521     -38.775287     -24.88565       64.903393    
      2780   30.516765      20.582262      20.353322      306.03991      933.15552     -632.80481      617.76902    
      2790   30.518438      20.548197      20.356208     -78.276839     -122.27155     -100.14844     -12.410534    
      2800   30.506142      20.535126      20.330523      161.75043     -424.02006     -133.9758       1043.2471    
      2810   30.438707      20.515615      20.322958      57.174003      511.44322     -751.81512      411.8939     
      2820   30.451778      20.494685      20.337508     -129.3097       57.486982     -97.619394     -347.7967     
      2830   30.444228      20.483012      20.340232     -267.98265     -103.36454      42.856007     -743.4394     
      2840   30.413271      20.459237      20.317113     -134.78285     -224.21179     -104.17146     -75.965311    
      2850   30.404304      20.452802      20.310884     -63.351412     -159.81415     -16.598482     -13.641608    
      2860   30.387923      20.438551      20.302999      9.7953977     -73.474009      1.5326263      101.32758    
      2870   30.367802      20.418453      20.294865      30.380506     -88.217504      91.917476      87.441545    
      2880   30.351628      20.371821      20.303437     -227.29676     -600.44443      1001.6775     -1083.1233    
      2890   30.335975      20.388456      20.274467      668.69149      370.42847      796.67496      838.97104    
      2900   30.329962      20.400937      20.286073      7.0503889      122.71343     -22.659339     -78.902922    
      2910   30.334155      20.384474      20.273938     -63.150596     -677.75674      136.96854      351.33641    
      2920   30.315218      20.357442      20.254914      297.20263     -789.20698      593.31176      1087.5031    
      2930   30.277164      20.366339      20.247604      83.277492     -177.96675     -421.41031      849.20954    
      2940   30.251441      20.338599      20.251379     -93.008499     -28.494434     -93.694546     -156.83652    
      2950   30.239992      20.302928      20.250203     -1230.1979     -1622.8705     -318.02558     -1749.6975    
      2960   30.19652       20.304965      20.223727      330.43995      561.89177      139.28765      290.14043    
      2970   30.218353      20.308855      20.230896     -290.24076     -631.27023     -158.05762     -81.39444     
      2980   30.203147      20.310015      20.238071     -164.16914     -5.0810618     -163.71484     -323.71152    
      2990   30.194543      20.307606      20.236291      72.261928      359.33128     -41.29046      -101.25503    
      3000   30.192381      20.298453      20.226569      368.33102      317.69924      251.29448      535.99934    
      3010   30.194411      20.289803      20.219561      47.612371     -497.12197      57.461483      582.4976     
      3020   30.174511      20.277013      20.221606     -1193.0924     -1765.1875     -962.10266     -851.98699    
      3030   30.057111      20.254117      20.161479      1657.7489      2445.784      -99.757212      2627.2199    
      3040   30.118281      20.22258       20.18513      -169.41761     -1081.7409      224.11657      349.37153    
      3050   30.034666      20.229538      20.141709      578.51053      954.37375     -714.32433      1495.4822    
      3060   30.053909      20.197065      20.168715      65.6085       -109.4971       300.55272      5.7698843    
      3070   30.050358      20.191843      20.173537      137.89233     -82.125047      435.34591      60.456113    
      3080   30.039841      20.193341      20.173745      192.368        60.600232      245.23471      271.26907    
      3090   30.01686       20.190223      20.168487      312.61077      370.34827      82.775488      484.70856    
      3100   29.944997      20.159847      20.159526      262.0458       1003.9734     -132.11769     -85.718361    
      3110   29.946972      20.150118      20.135333     -277.78905     -478.89349     -707.9144       353.44075    
      3120   29.940114      20.142455      20.136698     -239.32858     -278.62659     -476.85726      37.498112    
      3130   29.918228      20.122621      20.122293     -94.091861     -68.661993      7.7200268     -221.33362    
      3140   29.89456       20.134058      20.125324     -609.69169      127.29103     -865.20806     -1091.158     
      3150   29.888704      20.104862      20.122499     -19.688918      108.93476      277.43445     -445.43597    
      3160   29.833514      20.076108      20.086497      121.83966     -509.1861       41.556598      833.14848    
      3170   29.808071      20.083582      20.093459     -30.414155      337.36202     -451.95491      23.350422    
      3180   29.807696      20.070597      20.07817       31.658394     -169.76226     -112.02922      376.76666    
      3190   29.780688      20.060077      20.09387      -162.59425      395.83922      41.1311       -924.75307    
      3200   29.765208      20.051668      20.071812      31.22945       41.289994      29.752431      22.645924    
      3210   29.739231      20.041598      20.066533     -171.40532     -209.99638     -49.934289     -254.28529    
      3220   29.728285      20.03522       20.057621     -50.482982     -224.74117     -67.442794      140.73502    
      3230   29.676259      20.027372      20.045215     -398.28368     -446.78184     -644.06981     -103.99938    
      3240   29.667759      20.007914      20.0533       -118.51846     -107.41551      181.53316     -429.67301    
      3250   29.65056       20.036392      20.043535     -428.50664      63.929803     -1141.0157     -208.43401    
      3260   29.652263      20.001207      20.041161     -178.74104     -612.03056      155.66653     -79.859087    
      3270   29.603343      20.002231      20.029881      135.79136      357.72311     -223.03449      272.68545    
      3280   29.60115       19.990888      20.030738      30.812553      45.079589      36.619651      10.738419    
      3290   29.564682      19.962817      20.039671     -52.427613     -317.20988      799.00536     -639.07831    
      3300   29.468407      19.960245      20.016094     -17.870081      53.6757        40.74881      -148.03475    
      3310   29.474326      19.953004      19.995979      166.81539     -382.45823      137.02481      745.87959    
      3320   29.448871      19.952772      20.00215       92.03954       81.864685      47.327172      146.92676    
      3330   29.437209      19.948539      20.002072      118.17383      143.20586      211.24487      0.070754727  
      3340   29.400898      19.954378      19.990284      201.04771      409.23029     -278.30952      472.22237    
      3350   29.328512      19.914475      19.98665       181.23596      116.08965      348.42228      79.195964    
      3360   29.184535      19.848976      19.961075     -307.72531     -1267.5444      639.06728     -294.69883    
      3370   29.156612      19.871898      19.953626      393.41353      168.78255      282.32949      729.12855    
      3380   29.156965      19.863766      19.967029      344.14928      220.69179      832.96691     -21.210856    
      3390   29.151162      19.890814      19.968392     -50.665678      42.420372     -157.5509      -36.866507    
      3400   29.138513      19.891777      19.973138     -158.36905      57.877997     -284.10891     -248.87624    
      3410   29.121348      19.884139      19.97482       88.096973      75.804188      299.52394     -111.0372     
      3420   29.098599      19.881758      19.977226     -55.541232      204.50779     -108.95096     -262.18052    
      3430   29.082589      19.871746      19.978047     -405.76063     -634.86616     -371.74363     -210.6721     
      3440   29.027921      19.863776      19.987116     -378.00802      75.65522      -539.26911     -670.41016    
      3450   28.980334      19.837176      19.978509      130.80366      855.78208     -64.618155     -398.75294    
      3460   28.925053      19.805829      19.953676      546.84194      478.34993      242.4538       919.72208    
      3470   28.930987      19.818627      19.969534     -1026.4879     -1819.5427     -951.24831     -308.67268    
      3480   28.909648      19.802875      19.966908     -18.168745      131.58791     -46.475766     -139.61838    
      3490   28.912115      19.809848      19.965347      51.304439     -25.343058      74.013467      105.24291    
      3500   28.878434      19.826151      19.984102      92.789146      699.13707      40.507783     -461.27741    
      3510   28.898937      19.832854      19.971681      258.70568      331.75891      223.64467      220.71346    
      3520   28.907021      19.826486      19.967251      265.86362      67.588539      352.84637      377.15594    
      3530   28.880693      19.82987       19.971702      10.930869      117.97026     -77.756159     -7.4214979    
      3540   28.875695      19.822167      19.955847      112.52143      39.81293      -387.86517      685.61652    
      3550   28.83978       19.816738      19.973694      133.23071      520.55121     -241.39795      120.53888    
      3560   28.824595      19.800571      19.974008      239.12128      394.82026      72.141046      250.40253    
      3570   28.778678      19.773348      19.970895      342.74459      311.2994       275.76271      441.17164    
      3580   28.738027      19.758832      19.971733      816.23365      902.27713      896.16668      650.25713    
      3590   28.748281      19.792953      19.959909     -72.855298     -153.32498     -967.12328      901.88237    
      3600   28.748327      19.763363      19.979517     -253.21642     -278.46641      107.60662     -588.78946    
      3610   28.732226      19.771124      19.972504      23.431156      381.27455     -152.4248      -158.55628    
      3620   28.729833      19.771526      19.965253      255.98879      445.67539     -31.943432      354.2344     
      3630   28.743183      19.764765      19.967107      46.058101     -231.80633      261.86301      108.11762    
      3640   28.745233      19.771933      19.967601     -210.66918     -431.67562     -78.376206     -121.95571    
      3650   28.730196      19.78319       19.966309     -147.31037      118.77467     -452.02254     -108.68324    
      3660   28.725235      19.773188      19.9671        138.80723      306.14545      132.70833     -22.432096    
      3670   28.728044      19.766958      19.965452      205.4006       92.835613      414.92493      108.44127    
      3680   28.728803      19.778276      19.960377     -158.80451     -375.16682     -316.60001      215.35331    
      3690   28.718075      19.776528      19.966204     -355.85003     -378.83206     -475.58766     -213.13038    
      3700   28.69603       19.7531        19.973702      77.930465      236.2055       459.19126     -461.60537    
      3710   28.675889      19.751009      19.960459      472.71981      698.12657      368.9977       351.03517    
      3720   28.665092      19.758482      19.941795      115.7771       38.280994     -657.94371      966.99402    
      3730   28.650563      19.724637      19.954153     -652.52142     -1302.8369     -213.98678     -440.74058    
      3740   28.578878      19.70168       19.961979     -350.22389     -180.41775      206.17537     -1076.4293    
      3750   28.503727      19.686234      19.942461      125.53905      419.88409      132.82982     -176.09676    
      3760   28.458626      19.697341      19.954058     -316.91718      1147.5119     -879.22659     -1219.0369    
      3770   28.494462      19.674466      19.942017      74.797578      19.477514      367.85427     -162.93905    
      3780   28.477045      19.702542      19.955748     -79.023042      232.62908     -363.08387     -106.61434    
      3790   28.488009      19.724523      19.959854      153.76908      265.98027      109.32104      86.005931    
      3800   28.491647      19.742195      19.959241      22.76239      -87.930384      229.32462     -73.107066    
      3810   28.477119      19.766696      19.94965      -38.361838      50.895695     -467.3473       301.36609    
      3820   28.46594       19.758065      19.945905      0.23354447    -343.11693      163.42602      180.39154    
      3830   28.446422      19.759093      19.936836      66.95959      -52.985603      90.040024      163.82435    
      3840   28.431513      19.76122       19.923241      97.597272     -139.73586     -508.00925      940.53692    
      3850   28.408861      19.729593      19.939134      1.0352524      66.732598     -80.557007      16.930166    
      3860   28.388378      19.687789      19.935778     -0.48432207    -380.23106      411.66193     -32.883834    
      3870   28.353246      19.679014      19.932941     -152.42411     -438.8626       209.84243     -228.25216    
      3880   28.341677      19.718409      19.92493       19.924259     -48.615292      27.204268      81.183801    
      3890   28.339042      19.734567      19.921606      112.03228      85.306829      73.706644      177.08336    
      3900   28.335091      19.744989      19.92454       86.690953      19.096298      63.752467      177.22409    
      3910   28.326452      19.751252      19.926511      46.159864     -49.823908      116.56985      71.733645    
      3920   28.319254      19.746541      19.922131      72.229751     -21.876844      133.87145      104.69465    
      3930   28.312325      19.745659      19.921295     -126.82519     -190.87613     -290.74827      101.14882    
      3940   28.311454      19.738988      19.924892     -190.09104     -259.91147     -80.998903     -229.36274    
      3950   28.296402      19.710138      19.937076     -193.38372     -157.99618      567.83979     -989.99478    
      3960   28.274959      19.716041      19.909668      266.23411      202.95188     -152.03332      747.78377    
      3970   28.252493      19.709676      19.912157      370.29223      811.35869     -235.51536      535.03336    
      3980   28.265029      19.685653      19.923237     -102.75614     -231.5997       420.5675      -497.23623    
      3990   28.265877      19.691782      19.914289     -307.16963     -649.35518     -68.348601     -203.80512    
      4000   28.238363      19.69551       19.907852     -25.081346      181.83522     -415.29114      158.21188    
      4010   28.216156      19.675955      19.911166      370.34737      763.67204      282.93399      64.436062    
      4020   28.228931      19.659736      19.903941      194.50439     -463.74058      821.59766      225.65608    
      4030   28.215511      19.687254      19.892071     -521.28894     -1034.3756     -778.42156      248.93037    
      4040   28.181054      19.679433      19.894142     -279.2066      -318.86711     -443.53963     -75.213054    
      4050   28.145426      19.679283      19.887793      455.35319      977.19361     -164.03059      552.89654    
      4060   28.160371      19.681518      19.879904      310.74341      176.90928     -18.030524      773.35147    
      4070   28.16555       19.677595      19.897497     -242.04585     -427.45437      48.508531     -347.19172    
      4080   28.144186      19.685589      19.901752      22.514758      604.157       -87.001338     -449.61139    
      4090   28.152378      19.69911       19.880404      388.85801      227.7135      -206.93422      1145.7947    
      4100   28.175234      19.706823      19.894581     -691.13909     -1426.9469     -602.85111     -43.619263    
      4110   28.137946      19.698422      19.914427      13.833252      483.1157       571.93167     -1013.5476    
      4120   28.145959      19.706708      19.892426      475.28421      113.21861      818.56579      494.06823    
      4130   28.147892      19.724821      19.898625     -268.55512     -530.02052     -24.439704     -251.20514    
      4140   28.127903      19.730916      19.898335      54.144494      289.17022      66.056906     -192.79364    
      4150   28.13226       19.733966      19.885749      164.57942     -185.02355      231.63881      447.12299    
      4160   28.117773      19.743134      19.901365     -582.48588     -399.75473     -499.61824     -848.08467    
      4170   28.082313      19.745661      19.884076      579.58272      1196.521      -80.730744      622.95789    
      4180   28.100405      19.754312      19.875973     -156.30727     -518.03314     -681.6993       730.81064    
      4190   28.075864      19.755291      19.891581     -375.69063      127.82724     -802.22715     -452.672      
      4200   28.060139      19.736589      19.877711      631.95265      651.84485      334.06297      909.95013    
      4210   28.074806      19.734525      19.891649     -610.76605     -1073.628      -108.42601     -650.24412    
      4220   28.036008      19.725122      19.891149      270.60217      625.34629      637.09149     -450.63126    
      4230   28.048105      19.717275      19.879302      186.2643      -536.28716      803.11334      291.96674    
      4240   28.030682      19.725404      19.892236     -303.60431     -235.40594      109.05877     -784.46575    
      4250   28.014469      19.723755      19.880505      353.98666      527.10251      257.26899      277.58849    
      4260   28.021149      19.727598      19.87636      -116.61171     -326.18959     -244.27408      220.62853    
      4270   28.002523      19.719047      19.883484     -101.57009      128.89555     -291.05774     -142.5481     
      4280   27.995253      19.712855      19.871946      247.40926      293.44596     -61.872053      510.65386    
      4290   28.006503      19.70687       19.87644      -342.5263      -745.54713     -229.23434     -52.797436    
      4300   27.975778      19.694892      19.88849       90.723432      713.78717      320.04041     -761.65728    
      4310   27.993132      19.68885       19.871231      303.71237     -158.71131      581.00391      488.8445     
      4320   27.987067      19.694518      19.882172     -295.24366     -352.59508     -42.468251     -490.66764    
      4330   27.971579      19.686666      19.878094      180.40932      323.54915      237.40526     -19.726435    
      4340   27.977892      19.683058      19.874081     -9.0256205     -349.61197      197.99846      124.53665    
      4350   27.953642      19.676206      19.892298     -377.12694      168.47854      100.26196     -1400.1213    
      4360   27.93922       19.659569      19.859587      917.839        713.46698      1001.9439      1038.1061    
      4370   27.95121       19.677211      19.869631     -529.97698     -707.8514      -490.03593     -392.04361    
      4380   27.922897      19.681374      19.86502       99.041076      684.18738     -428.83576      41.771611    
      4390   27.934559      19.674826      19.858975      50.339313     -94.798362     -156.0313       401.8476     
      4400   27.927732      19.679199      19.866497     -263.46663     -56.293327     -453.05012     -281.05643    
      4410   27.913191      19.675742      19.857093      454.90993      665.55322      127.85235      571.32422    
      4420   27.937953      19.67578       19.859856     -341.33105     -965.06938     -137.0457       78.121941    
      4430   27.902438      19.675428      19.875217     -51.485701      651.2078       70.591746     -876.25665    
      4440   27.914606      19.675249      19.855857      228.27331     -134.02974      287.05732      531.79237    
      4450   27.903981      19.6863        19.870782     -458.50352     -259.47719     -322.98034     -793.05302    
      4460   27.878207      19.674337      19.856714      918.4681       1088.8161      923.73986      742.84834    
      4470   27.90869       19.679943      19.863514     -472.68599     -1345.8709      211.08614     -283.27326    
      4480   27.857727      19.683912      19.869012      192.97412      716.00465      429.78402     -566.86629    
      4490   27.877784      19.6822        19.851341      59.360387     -845.86082      540.96337      482.97861    
      4500   27.843903      19.692025      19.866852     -155.85492      269.1457       35.963554     -772.67402    
      4510   27.847629      19.683866      19.845893      398.34792     -160.20551      560.3961       794.85319    
      4520   27.831828      19.694523      19.866828     -709.86739     -354.34073     -459.66009     -1315.6013    
      4530   27.809413      19.680554      19.838932      699.5132       653.85122      626.93812      817.75027    
      4540   27.818158      19.686923      19.847159     -524.71015     -781.78866     -288.05482     -504.28699    
      4550   27.779487      19.675535      19.843511      557.6112       1113.7617      519.93654      39.135361    
      4560   27.807138      19.670364      19.833204     -293.42249     -1211.3719      98.0186        233.08584    
      4570   27.758207      19.671772      19.843308      41.954335      725.0701      -47.052438     -552.15466    
      4580   27.77044       19.665084      19.824705      93.597688     -365.74247      92.495761      554.03978    
      4590   27.747938      19.670061      19.841293     -357.88347      216.1113      -501.22477     -788.53694    
      4600   27.749447      19.657921      19.818059      658.59307      376.9559       370.60448      1228.2188    
      4610   27.751214      19.663103      19.836194     -389.26363     -328.31195     -385.61699     -453.86197    
      4620   27.735659      19.65412       19.829109      375.73247      535.04971      224.22337      367.92431    
      4630   27.757246      19.654579      19.831577     -426.84732     -938.84535     -244.02169     -97.674916    
      4640   27.729291      19.650213      19.835741      109.53557      483.23164      45.757303     -200.38225    
      4650   27.744226      19.644862      19.822454      5.3778257     -530.35522      44.206276      502.28243    
      4660   27.716994      19.64824       19.839393     -292.72871      447.80035     -452.2228      -873.76367    
      4670   27.725072      19.632417      19.819554      278.80025      9.8681857      165.25022      661.28236    
      4680   27.717607      19.634928      19.829408     -478.11669     -244.13783     -537.89233     -652.31992    
      4690   27.697693      19.618356      19.810867      844.1629       1024.0122      535.10518      973.37134    
      4700   27.718496      19.619616      19.819664     -404.8381      -672.41137     -263.19906     -278.90388    
      4710   27.692958      19.610669      19.816923      266.03212      633.95794      193.1215      -28.983074    
      4720   27.724072      19.604065      19.801488     -199.77337     -1262.3261      124.21169      538.79433    
      4730   27.684527      19.605319      19.813175     -77.286558      443.87267     -96.702206     -579.03014    
      4740   27.695831      19.589783      19.791973      267.93854     -300.96285      285.51671      819.26177    
      4750   27.677467      19.599251      19.810672     -710.24799     -75.653516     -703.11814     -1351.9723    
      4760   27.67119       19.582709      19.780035      618.01689      493.13823      506.85803      854.05441    
      4770   27.670988      19.597121      19.790081     -15.790111      49.448829     -28.635337     -68.183824    
      4780   27.670461      19.602973      19.798346     -76.459962      83.007641      268.70408     -581.09161    
      4790   27.66643       19.63209       19.779928      0.25452151    -20.870151      18.013089      3.6206261    
      4800   27.652783      19.63798       19.76045      -94.232155     -143.90909     -72.398455     -66.388915    
      4810   27.653556      19.630083      19.741204      223.62404     -579.08284      424.57414      825.38081    
      4820   27.635248      19.614863      19.759362     -29.730974      168.34871     -50.981719     -206.55991    
      4830   27.629613      19.592751      19.746063     -2.3422357     -38.688128     -3.0874597      34.748881    
      4840   27.625385      19.577571      19.739199      17.615244      26.056293      21.635226      5.1542124    
      4850   27.624146      19.570064      19.729251     -191.4254      -318.72781     -154.69725     -100.85115    
      4860   27.596212      19.554217      19.703313      36.133887      594.33109     -101.27257     -384.65686    
      4870   27.606986      19.557707      19.695053      23.041827     -13.744418      25.580122      57.289776    
      4880   27.572319      19.581832      19.692156      652.4955       1537.9824      313.216        106.28808    
      4890   27.589139      19.598722      19.68013       20.787084     -41.275354      20.536892      83.099716    
      4900   27.568277      19.599557      19.658663      406.93879      550.93237      262.89257      406.99143    
      4910   27.536458      19.604101      19.626067      703.88045      1363.7112     -292.9498       1040.88      
      4920   27.562343      19.585062      19.640102      5.8017646      35.943004     -60.121797      41.584086    
      4930   27.573127      19.569677      19.637771     -331.84056     -435.04696     -267.69376     -292.78097    
      4940   27.557897      19.534818      19.620645      795.3438       960.85312      893.37283      531.80544    
      4950   27.581825      19.538861      19.603398     -332.6113      -376.24595     -655.15758      33.569651    
      4960   27.584516      19.510021      19.569559     -75.375402      110.14715     -76.135414     -260.13794    
      4970   27.58887       19.498979      19.543037     -61.096317     -138.51134     -42.382892     -2.3947146    
      4980   27.570803      19.521117      19.542677     -164.39325      258.69889     -441.64693     -310.2317     
      4990   27.572358      19.533685      19.529182      28.472563     -234.50368      91.313337      228.60804    
      5000   27.550264      19.55123       19.518754     -25.803435      22.052887     -71.229431     -28.233761    
      5010   27.535541      19.558705      19.496684      3.6657128     -82.41934      -14.752775      108.16925    
      5020   27.500333      19.551652      19.457426      229.95931      482.44268      133.84306      73.592189    
      5030   27.491361      19.535249      19.3996        236.29629     -200.04891      248.70484      660.23295    
      5040   27.483546      19.536068      19.388105     -1375.148      -1543.1461     -1320.041      -1262.2569    
      5050   27.479095      19.524774      19.376808     -625.06232     -938.11417     -518.71185     -418.36094    
      5060   27.4447        19.522642      19.378596      226.12978      1404.2632     -68.872375     -657.0015     
      5070   27.474817      19.521827      19.352306      410.92733      158.86652     -167.93834      1241.8538    
      5080   27.489354      19.512732      19.368438     -372.36473     -730.55849     -238.20855     -148.32714    
      5090   27.478504      19.502834      19.374498     -45.200487      152.05555      266.31232     -553.96933    
      5100   27.480786      19.497333      19.360562      573.32467      604.86479      676.13506      438.97417    
      5110   27.502846      19.510061      19.354533     -232.50487     -509.43678     -530.81868      342.74087    
      5120   27.497847      19.505698      19.361571     -284.24512     -10.853291     -589.7605      -252.12157    
      5130   27.500853      19.488227      19.357678      281.32596      390.30763      351.92588      101.74438    
      5140   27.520845      19.48103       19.351068      138.75546     -277.08784      508.49784      184.85638    
[...]
  G vector (1/distance) = 0.23956966
  estimated absolute RMS force accuracy = 0.00038043783
  estimated relative force accuracy = 1.1456772e-06
  KSpace vectors: actual max1d max3d = 384 7 1687
                  kxmax kymax kzmax  = 7 4 5
Generated 21 of 21 mixed pair_coeff terms from arithmetic mixing rule
WARNING: Inconsistent image flags (../domain.cpp:819)
Per MPI rank memory allocation (min/avg/max) = 68.07 | 68.07 | 68.07 Mbytes
   Step         PotEng         KinEng         TotEng         E_vdwl         E_coul         E_pair         E_mol        Econserve       Density         Volume    
         0   44.417256      496.08093      540.49818      56.297863     -1085.3467     -2301.8867      2346.304       540.49818      1.2502733      8291.6519    
       425  -461.06308      496.08093      35.017844      8.3871484     -1099.1338     -2364.8217      1903.7586      35.017844      1.2502733      8291.6519    
Loop time of 1.99832 on 1 procs for 425 steps with 528 atoms

99.9% CPU use with 1 MPI tasks x no OpenMP threads

Minimization stats:
  Stopping criterion = linesearch alpha is zero
  Energy initial, next-to-last, final = 
      44.4172556453996  -461.063082923947  -461.063082923947
  Force two-norm initial, final = 891.7263 1.257066
  Force max component initial, final = 110.83061 0.28897405
  Final line search alpha, max atom move = 5.6876104e-09 1.6435718e-09
  Iterations, force evaluations = 425 897

MPI task timing breakdown:
Section |  min time  |  avg time  |  max time  |%varavg| %total
---------------------------------------------------------------
Pair    | 1.5335     | 1.5335     | 1.5335     |   0.0 | 76.74
Bond    | 0.02836    | 0.02836    | 0.02836    |   0.0 |  1.42
Kspace  | 0.40986    | 0.40986    | 0.40986    |   0.0 | 20.51
Neigh   | 0.011997   | 0.011997   | 0.011997   |   0.0 |  0.60
Comm    | 0.010267   | 0.010267   | 0.010267   |   0.0 |  0.51
Output  | 0          | 0          | 0          |   0.0 |  0.00
Modify  | 0          | 0          | 0          |   0.0 |  0.00
Other   |            | 0.004349   |            |       |  0.22

Nlocal:            528 ave         528 max         528 min
Histogram: 1 0 0 0 0 0 0 0 0 0
Nghost:           7297 ave        7297 max        7297 min
Histogram: 1 0 0 0 0 0 0 0 0 0
Neighs:         213732 ave      213732 max      213732 min
Histogram: 1 0 0 0 0 0 0 0 0 0

Total # of neighbors = 213732
Ave neighs/atom = 404.79545
Ave special neighs/atom = 8.1212121
Neighbor list builds = 3
Dangerous builds = 0

reset_timestep  0
fix             f0 all box/relax tri ${p} vmax 0.001
fix             f0 all box/relax tri 0 vmax 0.001
thermo          10
thermo_style    custom step lx ly lz press pxx pyy pzz
min_style       cg
minimize        1e-15 1e-15 100000 100000
WARNING: Using 'neigh_modify every 1 delay 0 check yes' setting during minimization (../min.cpp:187)
Ewald initialization ...
  using 12-bit tables for long-range coulomb (../kspace.cpp:342)
  G vector (1/distance) = 0.23956966
  estimated absolute RMS force accuracy = 0.00038043783
  estimated relative force accuracy = 1.1456772e-06
  KSpace vectors: actual max1d max3d = 384 7 1687
                  kxmax kymax kzmax  = 7 4 5
Generated 21 of 21 mixed pair_coeff terms from arithmetic mixing rule
WARNING: Inconsistent image flags (../domain.cpp:819)
Per MPI rank memory allocation (min/avg/max) = 68.07 | 68.07 | 68.07 Mbytes
   Step           Lx             Ly             Lz           Press           Pxx            Pyy            Pzz      
         0   27.150282      17.26277       17.691156      1387.772       1889.2415      1289.5481      984.52634    
        10   27.13558       17.223668      17.662422      2815.9168      2852.849       2977.7914      2617.1098    
        20   27.132194      17.208342      17.654546      2716.6003      2626.7486      3187.0368      2336.0155    
        30   27.127198      17.182373      17.635822      2636.9618      2494.9638      3101.2904      2314.6313    
        40   27.12252       17.167956      17.625708      2795.6176      2633.0065      3205.8881      2547.9583    
        50   27.116943      17.162879      17.620026      2784.6585      2932.3786      2851.2485      2570.3483    
        60   27.122034      17.150225      17.615329      2926.238       2664.5899      3375.062       2739.0621    
        70   27.113531      17.145389      17.609715      2924.7757      3097.0182      2954.4331      2722.8757    
        80   27.119342      17.132725      17.602594      3019.4432      2924.1817      3234.6158      2899.532     
        90   27.116105      17.128945      17.602038      2910.3924      3129.6634      3015.6244      2585.8893    
       100   27.121813      17.125144      17.597541      2916.2234      2965.741       2944.9579      2837.9714    
       110   27.125017      17.120381      17.59893       2882.1305      2911.0358      3095.788       2639.5676    
       120   27.124225      17.120396      17.598006      2883.1586      3001.7593      2929.2351      2718.4814    
       130   27.129974      17.112959      17.597599      2905.8793      2875.8548      3163.276       2678.5071    
       135   27.131769      17.111256      17.596691      2904.5781      2763.1642      3214.4067      2736.1632    
Loop time of 0.747176 on 1 procs for 135 steps with 528 atoms

99.1% CPU use with 1 MPI tasks x no OpenMP threads

Minimization stats:
  Stopping criterion = linesearch alpha is zero
  Energy initial, next-to-last, final = 
     -461.063082923945  -464.484208970175  -464.437291585055
  Force two-norm initial, final = 373.39663 48.2677
  Force max component initial, final = 210.22953 31.46316
  Final line search alpha, max atom move = 3.0516714e-12 9.6015226e-11
  Iterations, force evaluations = 135 314

MPI task timing breakdown:
Section |  min time  |  avg time  |  max time  |%varavg| %total
---------------------------------------------------------------
Pair    | 0.56068    | 0.56068    | 0.56068    |   0.0 | 75.04
Bond    | 0.012518   | 0.012518   | 0.012518   |   0.0 |  1.68
Kspace  | 0.14589    | 0.14589    | 0.14589    |   0.0 | 19.53
Neigh   | 0.0043619  | 0.0043619  | 0.0043619  |   0.0 |  0.58
Comm    | 0.0036205  | 0.0036205  | 0.0036205  |   0.0 |  0.48
Output  | 3.8207e-05 | 3.8207e-05 | 3.8207e-05 |   0.0 |  0.01
Modify  | 0          | 0          | 0          |   0.0 |  0.00
Other   |            | 0.02007    |            |       |  2.69

Nlocal:            528 ave         528 max         528 min
Histogram: 1 0 0 0 0 0 0 0 0 0
Nghost:           7329 ave        7329 max        7329 min
Histogram: 1 0 0 0 0 0 0 0 0 0
Neighs:         216390 ave      216390 max      216390 min
Histogram: 1 0 0 0 0 0 0 0 0 0

Total # of neighbors = 216390
Ave neighs/atom = 409.82955
Ave special neighs/atom = 8.1212121
Neighbor list builds = 1
Dangerous builds = 0
unfix           f0

min_style 		cg
minimize		1e-15 1e-15 100000 100000
WARNING: Using 'neigh_modify every 1 delay 0 check yes' setting during minimization (../min.cpp:187)
Ewald initialization ...
  using 12-bit tables for long-range coulomb (../kspace.cpp:342)
  G vector (1/distance) = 0.23966883
  estimated absolute RMS force accuracy = 0.00036873748
  estimated relative force accuracy = 1.110442e-06
  KSpace vectors: actual max1d max3d = 383 7 1687
                  kxmax kymax kzmax  = 7 4 5
Generated 21 of 21 mixed pair_coeff terms from arithmetic mixing rule
WARNING: Inconsistent image flags (../domain.cpp:819)
Per MPI rank memory allocation (min/avg/max) = 68.07 | 68.07 | 68.07 Mbytes
   Step           Lx             Ly             Lz           Press           Pxx            Pyy            Pzz      
       135   27.131769      17.111256      17.596691      2904.5795      2763.166       3214.4073      2736.1652    
       140   27.131769      17.111256      17.596691      2707.6224      2814.3252      2855.096       2453.446     
       150   27.131769      17.111256      17.596691      2593.8835      2823.0612      2719.567       2239.0222    
       160   27.131769      17.111256      17.596691      2330.0659      2646.0557      2315.3731      2028.7689    
       170   27.131769      17.111256      17.596691      2389.1734      2712.4733      2354.8471      2100.1998    
       180   27.131769      17.111256      17.596691      2360.6762      2715.1313      2268.9762      2097.9213    
       190   27.131769      17.111256      17.596691      2173.7096      2531.7997      2107.7693      1881.56      
       200   27.131769      17.111256      17.596691      2111.3151      2493.7875      2015.5044      1824.6534    
       210   27.131769      17.111256      17.596691      2100.1208      2459.3748      2004.0064      1836.9812    
       220   27.131769      17.111256      17.596691      2074.5746      2448.2667      1987.0898      1788.3672    
       230   27.131769      17.111256      17.596691      1998.5831      2354.3596      1917.8391      1723.5506    
       240   27.131769      17.111256      17.596691      2011.3259      2343.0292      1931.9707      1758.9778    
       250   27.131769      17.111256      17.596691      1988.1764      2333.4407      1908.6509      1722.4377    
       260   27.131769      17.111256      17.596691      1951.1708      2284.0368      1887.8079      1681.6678    
       270   27.131769      17.111256      17.596691      1939.2504      2296.5375      1884.9469      1636.2668    
       280   27.131769      17.111256      17.596691      1919.8212      2269.3944      1854.8901      1635.1792    
       290   27.131769      17.111256      17.596691      1927.0871      2284.451       1864.1699      1632.6403    
       300   27.131769      17.111256      17.596691      1917.8751      2272.5096      1843.2185      1637.8971    
       310   27.131769      17.111256      17.596691      1897.2816      2259.5315      1826.2346      1606.0786    
       320   27.131769      17.111256      17.596691      1906.3303      2265.3496      1852.1956      1601.4457    
       330   27.131769      17.111256      17.596691      1893.061       2251.8173      1830.0053      1597.3602    
       340   27.131769      17.111256      17.596691      1882.3759      2223.7946      1840.849       1582.4839    
       350   27.131769      17.111256      17.596691      1885.1519      2230.9374      1839.4578      1585.0606    
       360   27.131769      17.111256      17.596691      1872.0457      2214.916       1823.7445      1577.4766    
       366   27.131769      17.111256      17.596691      1884.2558      2231.3193      1836.4739      1584.9741    
Loop time of 1.1459 on 1 procs for 231 steps with 528 atoms

99.8% CPU use with 1 MPI tasks x no OpenMP threads

Minimization stats:
  Stopping criterion = linesearch alpha is zero
  Energy initial, next-to-last, final = 
     -464.437266914041  -466.704277177096  -466.704277177096
  Force two-norm initial, final = 14.388595 1.0095511
  Force max component initial, final = 7.5585107 0.19647128
  Final line search alpha, max atom move = 1.0738876e-08 2.1098808e-09
  Iterations, force evaluations = 231 507

MPI task timing breakdown:
Section |  min time  |  avg time  |  max time  |%varavg| %total
---------------------------------------------------------------
Pair    | 0.88979    | 0.88979    | 0.88979    |   0.0 | 77.65
Bond    | 0.016543   | 0.016543   | 0.016543   |   0.0 |  1.44
Kspace  | 0.23122    | 0.23122    | 0.23122    |   0.0 | 20.18
Neigh   | 0          | 0          | 0          |   0.0 |  0.00
Comm    | 0.0058302  | 0.0058302  | 0.0058302  |   0.0 |  0.51
Output  | 5.6208e-05 | 5.6208e-05 | 5.6208e-05 |   0.0 |  0.00
Modify  | 0          | 0          | 0          |   0.0 |  0.00
Other   |            | 0.002454   |            |       |  0.21

Nlocal:            528 ave         528 max         528 min
Histogram: 1 0 0 0 0 0 0 0 0 0
Nghost:           7341 ave        7341 max        7341 min
Histogram: 1 0 0 0 0 0 0 0 0 0
Neighs:         216919 ave      216919 max      216919 min
Histogram: 1 0 0 0 0 0 0 0 0 0

Total # of neighbors = 216919
Ave neighs/atom = 410.83144
Ave special neighs/atom = 8.1212121
Neighbor list builds = 0
Dangerous builds = 0

variable 		volume equal vol
print 		 	"The volume of sow-4c_FeS-2c_B_S: ${volume}" file VOLUME.dat
The volume of sow-4c_FeS-2c_B_S: 8169.41639191474

write_data 		data.emin_sow-4c_FeS-2c_B_S_TMA pair ij
System init for write_data ...
Ewald initialization ...
  using 12-bit tables for long-range coulomb (../kspace.cpp:342)
  G vector (1/distance) = 0.23966883
  estimated absolute RMS force accuracy = 0.00036873748
  estimated relative force accuracy = 1.110442e-06
  KSpace vectors: actual max1d max3d = 383 7 1687
                  kxmax kymax kzmax  = 7 4 5
Generated 21 of 21 mixed pair_coeff terms from arithmetic mixing rule

### For strain energy
reset_timestep  0


fix				f1 all nve
fix 			f2 all langevin 0 0 ${damp_T} ${seed}
fix 			f2 all langevin 0 0 100 ${seed}
fix 			f2 all langevin 0 0 100 301360

thermo_style 	custom step pe ke etotal evdwl ecoul epair emol econserve density vol
thermo 	 	 	5000

variable		strain equal pe
fix 			STRAIN all ave/time 1 100 100 v_strain file STRAIN.dat

run 			100
Ewald initialization ...
  using 12-bit tables for long-range coulomb (../kspace.cpp:342)
  G vector (1/distance) = 0.23966883
  estimated absolute RMS force accuracy = 0.00036873748
  estimated relative force accuracy = 1.110442e-06
  KSpace vectors: actual max1d max3d = 383 7 1687
                  kxmax kymax kzmax  = 7 4 5
Generated 21 of 21 mixed pair_coeff terms from arithmetic mixing rule
WARNING: Inconsistent image flags (../domain.cpp:819)
Per MPI rank memory allocation (min/avg/max) = 66.95 | 66.95 | 66.95 Mbytes
   Step         PotEng         KinEng         TotEng         E_vdwl         E_coul         E_pair         E_mol        Econserve       Density         Volume    
         0  -466.70428      496.08093      29.37665       5.3241249     -1103.086      -2373.094       1906.3897      29.37665       1.2689806      8169.4164    
       100  -360.46427      77.24237      -283.2219       19.384828     -1102.8062     -2358.4214      1997.9571     -283.2219       1.2689806      8169.4164    
Loop time of 0.227853 on 1 procs for 100 steps with 528 atoms

Performance: 37.919 ns/day, 0.633 hours/ns, 438.879 timesteps/s
99.9% CPU use with 1 MPI tasks x no OpenMP threads

MPI task timing breakdown:
Section |  min time  |  avg time  |  max time  |%varavg| %total
---------------------------------------------------------------
Pair    | 0.17739    | 0.17739    | 0.17739    |   0.0 | 77.85
Bond    | 0.0031792  | 0.0031792  | 0.0031792  |   0.0 |  1.40
Kspace  | 0.045036   | 0.045036   | 0.045036   |   0.0 | 19.77
Neigh   | 0          | 0          | 0          |   0.0 |  0.00
Comm    | 0.001152   | 0.001152   | 0.001152   |   0.0 |  0.51
Output  | 3.125e-06  | 3.125e-06  | 3.125e-06  |   0.0 |  0.00
Modify  | 0.00095845 | 0.00095845 | 0.00095845 |   0.0 |  0.42
Other   |            | 0.0001338  |            |       |  0.06

Nlocal:            528 ave         528 max         528 min
Histogram: 1 0 0 0 0 0 0 0 0 0
Nghost:           7352 ave        7352 max        7352 min
Histogram: 1 0 0 0 0 0 0 0 0 0
Neighs:         216933 ave      216933 max      216933 min
Histogram: 1 0 0 0 0 0 0 0 0 0

Total # of neighbors = 216933
Ave neighs/atom = 410.85795
Ave special neighs/atom = 8.1212121
Neighbor list builds = 0
Dangerous builds = 0

unfix			f1
unfix			f2
unfix			STRAIN

### For potential energy
reset_timestep	0
velocity 		all create ${T} ${T}
velocity 		all create 300 ${T}
velocity 		all create 300 300
fix 		 	f1 all nve
fix 		 	f2 all langevin ${T} ${T} ${damp_T} ${seed} zero yes
fix 		 	f2 all langevin 300 ${T} ${damp_T} ${seed} zero yes
fix 		 	f2 all langevin 300 300 ${damp_T} ${seed} zero yes
fix 		 	f2 all langevin 300 300 100 ${seed} zero yes
fix 		 	f2 all langevin 300 300 100 301360 zero yes
fix_modify 		f2 temp c1
thermo_style 	custom step pe ke etotal evdwl ecoul epair emol econserve density vol
thermo 	 	 	5000
variable 	 	potential equal pe
fix				PE all ave/time 1 50000 50000 v_potential file PE.dat

run				50000
Ewald initialization ...
  using 12-bit tables for long-range coulomb (../kspace.cpp:342)
  G vector (1/distance) = 0.23966883
  estimated absolute RMS force accuracy = 0.00036873748
  estimated relative force accuracy = 1.110442e-06
  KSpace vectors: actual max1d max3d = 383 7 1687
                  kxmax kymax kzmax  = 7 4 5
Generated 21 of 21 mixed pair_coeff terms from arithmetic mixing rule
WARNING: Inconsistent image flags (../domain.cpp:819)
Per MPI rank memory allocation (min/avg/max) = 66.95 | 66.95 | 66.95 Mbytes
   Step         PotEng         KinEng         TotEng         E_vdwl         E_coul         E_pair         E_mol        Econserve       Density         Volume    
         0  -360.46427      471.26607      110.8018       19.384828     -1102.8062     -2358.4214      1997.9571      110.8018       1.2689806      8169.4164    
      5000   25.841104      462.36528      488.20639      54.254026     -1091.534      -2309.3736      2335.2147      488.20639      1.2689806      8169.4164    
     10000   8.3280742      483.87833      492.20641      70.65638      -1089.2685     -2292.591       2300.9191      492.20641      1.2689806      8169.4164    
     15000   41.221736      469.43016      510.65189      75.078915     -1092.4815     -2283.8655      2325.0873      510.65189      1.2689806      8169.4164    
     20000   23.945499      509.3464       533.2919       62.007645     -1078.9885     -2286.7616      2310.7071      533.2919       1.2689806      8169.4164    
     25000   38.76166       489.35085      528.11251      88.518089     -1081.4074     -2260.7808      2299.5424      528.11251      1.2689806      8169.4164    
     30000   37.946184      473.21248      511.15866      71.000002     -1080.1535     -2276.4532      2314.3994      511.15866      1.2689806      8169.4164    
     35000   30.197079      474.35329      504.55037      63.0001       -1083.6374     -2289.3588      2319.5559      504.55037      1.2689806      8169.4164    
     40000   27.525996      487.93458      515.46057      67.508879     -1085.9487     -2287.2061      2314.7321      515.46057      1.2689806      8169.4164    
     45000   22.623374      455.49391      478.11728      73.093113     -1075.8811     -2272.3718      2294.9952      478.11728      1.2689806      8169.4164    
     50000   45.353731      499.53148      544.88522      37.658997     -1066.5254     -2297.511       2342.8647      544.88522      1.2689806      8169.4164    
Loop time of 118.819 on 1 procs for 50000 steps with 528 atoms

Performance: 36.358 ns/day, 0.660 hours/ns, 420.809 timesteps/s
99.8% CPU use with 1 MPI tasks x no OpenMP threads

MPI task timing breakdown:
Section |  min time  |  avg time  |  max time  |%varavg| %total
---------------------------------------------------------------
Pair    | 89.393     | 89.393     | 89.393     |   0.0 | 75.23
Bond    | 1.598      | 1.598      | 1.598      |   0.0 |  1.34
Kspace  | 22.885     | 22.885     | 22.885     |   0.0 | 19.26
Neigh   | 3.6726     | 3.6726     | 3.6726     |   0.0 |  3.09
Comm    | 0.62342    | 0.62342    | 0.62342    |   0.0 |  0.52
Output  | 0.00010046 | 0.00010046 | 0.00010046 |   0.0 |  0.00
Modify  | 0.5796     | 0.5796     | 0.5796     |   0.0 |  0.49
Other   |            | 0.06649    |            |       |  0.06

Nlocal:            528 ave         528 max         528 min
Histogram: 1 0 0 0 0 0 0 0 0 0
Nghost:           7474 ave        7474 max        7474 min
Histogram: 1 0 0 0 0 0 0 0 0 0
Neighs:         217093 ave      217093 max      217093 min
Histogram: 1 0 0 0 0 0 0 0 0 0

Total # of neighbors = 217093
Ave neighs/atom = 411.16098
Ave special neighs/atom = 8.1212121
Neighbor list builds = 856
Dangerous builds = 0

unfix			f1
unfix			f2
unfix			PE


Total wall time: 0:04:03
