Created on Fri Feb 14 13:50:04 2025 

         390 atoms
         456 bonds
         864 angles
        1056 dihedrals
         648 impropers

           7 atom types
           8 bond types
           12 angle types
           4 dihedral types
           1 improper types
           0.000000  28.586000 xlo xhi
           0.000000  28.796876 ylo yhi
           0.000000  28.522948 zlo zhi
          -0.084437  -0.007969  -0.895400 xy xz yz

Atoms

       1      444        1     0.04680   12.54443   20.36735    4.59904
       2      444        1    -0.12780   11.27547   19.82296    4.32807
       3      444        2     0.11210   10.98449   19.56169    3.25732
       4      444        1     0.04680    4.55902   16.00495    8.76253
       5      444        1    -0.12780    5.07174   16.48433    7.59110
       6      444        2     0.11210    4.60792   16.17518    6.59650
       7      444        1    -0.12780    5.16763   16.34260    9.91344
       8      444        2     0.11210    4.80580   15.90128   10.90004
       9      444        1    -0.13180    6.21220   17.20447    9.93255
      10      444        2     0.10780    6.70901   17.47578   10.92201
      11      444        1     0.02200    6.66728   17.74299    8.78535
      12      444        1    -0.13180    6.14493   17.33644    7.61848
      13      444        2     0.10780    6.59417   17.70046    6.63586
      14      444        1     0.04680    8.83807   23.87783   12.76801
      15      444        1    -0.12780    7.68783   23.21906   12.42545
      16      444        2     0.11210    6.70032   23.50097   12.92090
      17      444        1    -0.13180    7.65533   22.23175   11.51272
      18      444        2     0.10780    6.65770   21.77738   11.19954
      19      444        1     0.02200    8.82901   21.74176   10.93056
      20      444        1    -0.13180    9.99323   22.29794   11.38579
      21      444        2     0.10780   10.99681   21.88142   11.04095
      22      444        1    -0.12780    9.98780   23.35791   12.25859
      23      444        2     0.11210   10.99461   23.80391   12.55409
      24      444        1    -0.12780   12.90282   20.61691    5.91452
      25      444        2     0.11210   13.94784   21.00265    6.15725
      26      444        1    -0.13180   11.98689   20.39829    6.95247
      27      444        2     0.10780   12.28054   20.62913    8.02950
      28      444        1     0.02200   10.74890   19.91678    6.72400
      29      444        1    -0.13180   10.40549   19.62433    5.43590
      30      444        2     0.10780    9.37430   19.19734    5.20430
      31      444        1    -0.03390    7.80731   18.80449    8.81131
      32      444        1    -0.07610    7.83855   19.72427    9.81104
      33      444        2     0.10290    7.04189   19.70790   10.62594
      34      444        1    -0.03390    8.82825   20.67696    9.84498
      35      444        1    -0.07610    9.72240   20.71663    8.81958
      36      444        2     0.10290   10.52129   21.52960    8.79106
      37      444        1    -0.03390    9.74280   19.83694    7.79047
      38      444        1    -0.07610    8.73453   18.87447    7.80217
      39      444        2     0.10290    8.69472   18.13126    6.93878
      40      444        1     0.04680   20.27299    3.99625   12.86670
      41      444        1    -0.12780   20.80430    5.25928   13.18759
      42      444        2     0.11210   21.10422    5.49511   14.26147
      43      444        1     0.04680   24.31046   12.29270    8.99329
      44      444        1    -0.12780   23.88953   11.70487   10.15189
      45      444        2     0.11210   24.23069   12.11849   11.15789
      46      444        1    -0.12780   23.93688   11.74253    7.82384
      47      444        2     0.11210   24.33049   12.16843    6.84266
      48      444        1    -0.13180   23.09472   10.68303    7.77992
      49      444        2     0.10780   22.79224   10.23712    6.77534
      50      444        1     0.02200   22.61275   10.15308    8.92027
      51      444        1    -0.13180   23.05689   10.61719   10.09741
      52      444        2     0.10780   22.74215   10.10614   11.06690
      53      444        1     0.04680   16.36020    8.08165    5.06967
      54      444        1    -0.12780   17.01076    9.22417    5.45045
      55      444        2     0.11210   16.69037   10.23220    5.02403
      56      444        1    -0.13180   18.03438    9.22614    6.32325
      57      444        2     0.10780   18.48244   10.21379    6.67437
      58      444        1     0.02200   18.56968    8.03197    6.81756
      59      444        1    -0.13180   18.01695    6.88394    6.31897
      60      444        2     0.10780   18.46576    5.87130    6.58937
      61      444        1    -0.12780   16.92175    6.91597    5.49124
      62      444        2     0.11210   16.48286    5.91856    5.15723
      63      444        1    -0.12780   19.97589    3.70718   11.54409
      64      444        2     0.11210   19.60027    2.66969   11.25772
      65      444        1    -0.13180   20.13462    4.68431   10.55178
      66      444        2     0.10780   19.86501    4.44700    9.46990
      67      444        1     0.02200   20.60200    5.91726   10.83102
      68      444        1    -0.13180   20.94088    6.19373   12.12396
      69      444        2     0.10780   21.35770    7.21926   12.39664
      70      444        1    -0.03390   21.57220    8.99409    8.87178
      71      444        1    -0.07610   20.61262    9.00010    7.90970
      72      444        2     0.10290   20.58071    9.84147    7.14158
      73      444        1    -0.03390   19.67797    7.99384    7.85779
      74      444        1    -0.07610   19.69726    7.04322    8.83128
      75      444        2     0.10290   18.90124    6.22721    8.84668
      76      444        1    -0.03390   20.61897    6.98334    9.82131
      77      444        1    -0.07610   21.56101    8.01059    9.82844
      78      444        2     0.10290   22.33879    8.01725   10.66216
      79      444        1     0.04680   12.51690    7.48431   24.95102
      80      444        1    -0.12780   11.24627    8.02802   25.21628
      81      444        2     0.11210   10.95067    8.28933   26.28561
      82      444        1     0.04680    4.54705   11.84121   20.75187
      83      444        1    -0.12780    5.05514   11.36262   21.92559
      84      444        2     0.11210    4.58677   11.67185   22.91790
      85      444        1    -0.12780    5.16078   11.50348   19.60354
      86      444        2     0.11210    4.80339   11.94457   18.61522
      87      444        1    -0.13180    6.20584   10.64232   19.58928
      88      444        2     0.10780    6.70726   10.37095   18.60181
      89      444        1     0.02200    6.65637   10.10432   20.73847
      90      444        1    -0.13180    6.12905   10.51094   21.90306
      91      444        2     0.10780    6.57397   10.14743   22.88767
      92      444        1     0.04680    8.84722    3.96941   16.76721
      93      444        1    -0.12780    7.69544    4.62777   17.10436
      94      444        2     0.11210    6.70995    4.34512   16.60492
      95      444        1    -0.13180    7.65847    5.61537   18.01681
      96      444        2     0.10780    6.65938    6.06903   18.32542
      97      444        1     0.02200    8.82941    6.10607   18.60409
      98      444        1    -0.13180    9.99580    5.55031   18.15372
      99      444        2     0.10780   10.99782    5.96728   18.50284
     100      444        1    -0.12780    9.99495    4.49005   17.28120
     101      444        2     0.11210   11.00288    4.04448   16.99026
     102      444        1    -0.12780   12.88116    7.23442   23.63725
     103      444        2     0.11210   13.92720    6.84911   23.39909
     104      444        1    -0.13180   11.96959    7.45230   22.59502
     105      444        2     0.10780   12.26767    7.22114   21.51942
     106      444        1     0.02200   10.73032    7.93312   22.81807
     107      444        1    -0.13180   10.38109    8.22591   24.10474
     108      444        2     0.10780    9.34866    8.65246   24.33179
     109      444        1    -0.03390    7.79721    9.04323   20.71764
     110      444        1    -0.07610    7.83315    8.12315   19.71848
     111      444        2     0.10290    7.03986    8.13905   18.90016
     112      444        1    -0.03390    8.82360    7.17118   19.68911
     113      444        1    -0.07610    9.71293    7.13196   20.71821
     114      444        2     0.10290   10.51228    6.31946   20.75044
     115      444        1    -0.03390    9.72883    8.01223   21.74732
     116      444        1    -0.07610    8.71979    8.97398   21.73106
     117      444        2     0.10290    8.67613    9.71779   22.59388
     118      444        1     0.04680   20.27134   23.97780   16.55500
     119      444        1    -0.12780   20.80658   22.71614   16.23612
     120      444        2     0.11210   21.10354   22.47832   15.16166
     121      444        1     0.04680   24.35679   15.70983   20.43869
     122      444        1    -0.12780   23.92901   16.29219   19.27980
     123      444        2     0.11210   24.26820   15.87685   18.27380
     124      444        1    -0.12780   23.98512   16.26174   21.60756
     125      444        2     0.11210   24.38419   15.84045   22.58875
     126      444        1    -0.13180   23.13900   17.31807   21.65148
     127      444        2     0.10780   22.83831   17.76572   22.65578
     128      444        1     0.02200   22.65050   17.84254   20.51142
     129      444        1    -0.13180   23.09224   17.37671   19.33400
     130      444        2     0.10780   22.77209   17.88345   18.36421
     131      444        1     0.04680   16.40385   19.90048   24.37885
     132      444        1    -0.12780   17.05795   18.75937   23.99921
     133      444        2     0.11210   16.74316   17.75150   24.42990
     134      444        1    -0.13180   18.07794   18.75897   23.12241
     135      444        2     0.10780   18.52891   17.77212   22.77301
     136      444        1     0.02200   18.60689   19.95360   22.62269
     137      444        1    -0.13180   18.05135   21.10110   23.11956
     138      444        2     0.10780   18.49499   22.11446   22.84460
     139      444        1    -0.12780   16.95944   21.06721   23.95158
     140      444        2     0.11210   16.51760   22.06379   24.28444
     141      444        1    -0.12780   19.97813   24.26974   17.87790
     142      444        2     0.11210   19.59908   25.30643   18.16227
     143      444        1    -0.13180   20.14442   23.29629   18.87249
     144      444        2     0.10780   19.87775   23.53560   19.95465
     145      444        1     0.02200   20.61551   22.06442   18.59525
     146      444        1    -0.13180   20.95098   21.78508   17.30202
     147      444        2     0.10780   21.37087   20.76066   17.03077
     148      444        1    -0.03390   21.60571   18.99721   20.56020
     149      444        1    -0.07610   20.64974   18.99050   21.52598
     150      444        2     0.10290   20.62390   18.15136   22.29667
     151      444        1    -0.03390   19.71116   19.99301   21.57818
     152      444        1    -0.07610   19.72303   20.94084   20.60184
     153      444        2     0.10290   18.92368   21.75367   20.58672
     154      444        1    -0.03390   20.64084   21.00141   19.60810
     155      444        1    -0.07610   21.58689   19.97791   19.60068
     156      444        2     0.10290   22.36162   19.97192   18.76411
     157      444        1     0.04680   26.69283   18.75976    6.39256
     158      444        1    -0.12780   26.15323   19.17251    5.16037
     159      444        2     0.11210   26.60977   18.79941    4.18489
     160      444        1     0.04680   18.72227   22.98709    2.06449
     161      444        1    -0.12780   19.97699   22.49932    1.83374
     162      444        2     0.11210   20.30231   22.24180    0.77183
     163      444        1    -0.12780   18.35120   23.22393    3.33547
     164      444        2     0.11210   17.28758   23.56345    3.56451
     165      444        1    -0.13180   19.21800   23.06810    4.36401
     166      444        2     0.10780   18.87853   23.27762    5.43191
     167      444        1     0.02200   20.48162   22.66567    4.13012
     168      444        1    -0.13180   20.83928   22.32120    2.88424
     169      444        2     0.10780   21.87061   21.87518    2.69028
     170      444        1     0.04680   22.65126   26.57662   10.31133
     171      444        1    -0.12780   22.11248   26.80952    9.07486
     172      444        2     0.11210   21.70819   27.84373    8.81445
     173      444        1    -0.13180   22.03128   25.86291    8.12277
     174      444        2     0.10780   21.65582   26.13291    7.08082
     175      444        1     0.02200   22.39982   24.53876    8.38175
     176      444        1    -0.13180   22.79604   24.27417    9.66443
     177      444        2     0.10780   23.01088   23.20122    9.98474
     178      444        1    -0.12780   22.94426   25.27718   10.59057
     179      444        2     0.11210   23.32806   24.98900   11.62453
     180      444        1    -0.12780   26.08287   19.17271    7.56685
     181      444        2     0.11210   26.47064   18.80077    8.57200
     182      444        1    -0.13180   24.98862   20.04735    7.52749
     183      444        2     0.10780   24.50726   20.40218    8.49813
     184      444        1     0.02200   24.47233   20.49504    6.36575
     185      444        1    -0.13180   25.03863   20.05520    5.20430
     186      444        2     0.10780   24.61836   20.39627    4.20086
     187      444        1    -0.03390   21.50798   22.57398    5.29871
     188      444        1    -0.07610   21.48429   23.51185    6.28161
     189      444        2     0.10290   20.71173   24.34933    6.25194
     190      444        1    -0.03390   22.38938   23.45611    7.31414
     191      444        1    -0.07610   23.34529   22.48805    7.28391
     192      444        2     0.10290   24.14379   22.44957    8.09681
     193      444        1    -0.03390   23.43050   21.52906    6.33152
     194      444        1    -0.07610   22.48330   21.60887    5.31183
     195      444        2     0.10290   22.53561   20.83957    4.47211
     196      444        1     0.04680   26.72741    9.24832   22.99092
     197      444        1    -0.12780   26.18560    8.83759   24.22283
     198      444        2     0.11210   26.63865    9.21415   25.19860
     199      444        1     0.04680   18.75472    5.01551   27.31015
     200      444        1    -0.12780   20.00784    5.50668   27.54261
     201      444        2     0.11210   20.33795    6.66305    0.08158
     202      444        1    -0.12780   18.38714    4.77465   26.03860
     203      444        2     0.11210   17.32483    4.43230   25.80785
     204      444        1    -0.13180   19.25637    4.92956   25.01177
     205      444        2     0.10780   18.92008    4.71659   23.94359
     206      444        1     0.02200   20.51859    5.33510   25.24794
     207      444        1    -0.13180   20.87243    5.68388   26.49383
     208      444        2     0.10780   21.90214    6.13245   26.68921
     209      444        1     0.04680   22.71178    1.41301   19.08214
     210      444        1    -0.12780   22.17058    1.18185   20.31804
     211      444        2     0.11210   21.76788    0.14758   20.58016
     212      444        1    -0.13180   22.08483    2.13114   21.26728
     213      444        2     0.10780   21.70732    1.86288   22.30894
     214      444        1     0.02200   22.45152    3.45507   21.00601
     215      444        1    -0.13180   22.85029    3.71735   19.72362
     216      444        2     0.10780   23.06366    4.78980   19.40102
     217      444        1    -0.12780   23.00280    2.71223   18.80062
     218      444        2     0.11210   23.38882    2.99838   17.76694
     219      444        1    -0.12780   26.12105    8.83106   21.81635
     220      444        2     0.11210   26.51082    9.20128   20.81091
     221      444        1    -0.13180   25.02848    7.95414   21.85485
     222      444        2     0.10780   24.55050    7.59585   20.88422
     223      444        1     0.02200   24.51052    7.50847   23.01659
     224      444        1    -0.13180   25.07278    7.95233   24.17833
     225      444        2     0.10780   24.65090    7.61329   25.18148
     226      444        1    -0.03390   21.54786    5.42614   24.08164
     227      444        1    -0.07610   21.52839    4.48560   23.10102
     228      444        2     0.10290   20.75759    3.64667   23.13097
     229      444        1    -0.03390   22.43594    4.54069   22.07077
     230      444        1    -0.07610   23.38985    5.51077   22.10101
     231      444        2     0.10290   24.19017    5.54862   21.28981
     232      444        1    -0.03390   23.47072    6.47214   23.05111
     233      444        1    -0.07610   22.52095    6.39327   24.06823
     234      444        2     0.10290   22.56983    7.16492   24.90624
     235      444        1     0.04680    6.28135   26.13898   18.74842
     236      444        1    -0.12780    5.05145   25.55256   19.10068
     237      444        2     0.11210    4.07726   25.98787   18.70022
     238      444        1     0.04680    2.04520   17.94244   22.62212
     239      444        1    -0.12780    1.79442   19.20057   22.15434
     240      444        2     0.11210    0.73368   19.49999   21.86312
     241      444        1    -0.12780    3.31731   17.60428   22.89993
     242      444        2     0.11210    3.56615   16.54043   23.22395
     243      444        1    -0.13180    4.32350   18.50548   22.80381
     244      444        2     0.10780    5.39287   18.19374   23.04711
     245      444        1     0.02200    4.06581   19.77071   22.42160
     246      444        1    -0.13180    2.82350   20.09869   22.03683
     247      444        2     0.10780    2.61480   21.13361   21.60699
     248      444        1     0.04680   10.02266   22.03256   26.61847
     249      444        1    -0.12780    8.79510   21.45122   26.79075
     250      444        2     0.11210    8.50843   21.01480   27.80445
     251      444        1    -0.13180    7.88326   21.36377   25.80614
     252      444        2     0.10780    6.84386   20.95052   26.02662
     253      444        1     0.02200    8.18098   21.77159   24.50178
     254      444        1    -0.13180    9.45985   22.21258   24.29642
     255      444        2     0.10780    9.81397   22.46252   23.24192
     256      444        1    -0.12780   10.34175   22.36476   25.33779
     257      444        2     0.11210   11.37341   22.78665   25.09905
     258      444        1    -0.12780    7.45721   25.55485   19.19281
     259      444        2     0.11210    8.46345   25.98199   18.86907
     260      444        1    -0.13180    7.41872   24.43943   20.04051
     261      444        2     0.10780    8.38956   23.97967   20.42158
     262      444        1     0.02200    6.25734   23.87773   20.43070
     263      444        1    -0.13180    5.09648   24.41895   19.95893
     264      444        2     0.10780    4.09435   23.96056   20.25072
     265      444        1    -0.03390    5.20471   20.83403   22.39879
     266      444        1    -0.07610    6.15116   20.81755   23.37341
     267      444        2     0.10290    6.11374   20.02473   24.19117
     268      444        1    -0.03390    7.15636   21.75445   23.37826
     269      444        1    -0.07610    7.13326   22.73186   22.43187
     270      444        2     0.10290    7.92182   23.55538   22.44328
     271      444        1    -0.03390    6.21607   22.81113   21.43870
     272      444        1    -0.07610    5.22443   21.83175   21.45696
     273      444        2     0.10290    4.41332   21.87702   20.65717
     274      444        1     0.04680    6.30980    1.87052   10.59000
     275      444        1    -0.12780    5.07732    2.45146   10.23803
     276      444        2     0.11210    4.10539    2.01292   10.64049
     277      444        1     0.04680    2.03626   10.04154    6.70346
     278      444        1    -0.12780    1.79108    8.78331    7.17438
     279      444        2     0.11210    0.73189    8.48037    7.46759
     280      444        1    -0.12780    3.30658   10.38409    6.42337
     281      444        2     0.11210    3.55085   11.44859    6.09678
     282      444        1    -0.13180    4.31655    9.48748    6.52035
     283      444        2     0.10780    5.38426    9.80302    6.27505
     284      444        1     0.02200    4.06456    8.22185    6.90569
     285      444        1    -0.13180    2.82390    7.88978    7.29246
     286      444        2     0.10780    2.61981    6.85478    7.72487
     287      444        1     0.04680   10.02517    5.97505    2.70654
     288      444        1    -0.12780    8.79520    6.55092    2.53426
     289      444        2     0.11210    8.50559    6.98391    1.51999
     290      444        1    -0.13180    7.88412    6.63689    3.52002
     291      444        2     0.10780    6.84304    7.04552    3.29982
     292      444        1     0.02200    8.18497    6.23309    4.82494
     293      444        1    -0.13180    9.46597    5.79788    5.02974
     294      444        2     0.10780    9.82248    5.55139    6.08423
     295      444        1    -0.12780   10.34724    5.64687    3.98751
     296      444        2     0.11210   11.38091    5.22960    4.22596
     297      444        1    -0.12780    7.48313    2.45848   10.14276
     298      444        2     0.11210    8.49133    2.03595   10.46621
     299      444        1    -0.13180    7.43902    3.57167    9.29278
     300      444        2     0.10780    8.40773    4.03466    8.90943
     301      444        1     0.02200    6.27494    4.12788    8.90287
     302      444        1    -0.13180    5.11691    3.58313    9.37720
     303      444        2     0.10780    4.11261    4.03691    9.08541
     304      444        1    -0.03390    5.20737    7.16340    6.92936
     305      444        1    -0.07610    6.15274    7.18136    5.95359
     306      444        2     0.10290    6.11099    7.97251    5.13413
     307      444        1    -0.03390    7.16170    6.24848    5.94932
     308      444        1    -0.07610    7.14363    5.27300    6.89799
     309      444        2     0.10290    7.93587    4.45291    6.88744
     310      444        1    -0.03390    6.22817    5.19225    7.89258
     311      444        1    -0.07610    5.23224    6.16763    7.87319
     312      444        2     0.10290    4.42253    6.12060    8.67440
     313      444        3     0.73440   14.25235   22.12929    0.15459
     314      444        4    -0.49240   15.65017   20.92657   26.69805
     315      444        4    -0.49240   15.06752   22.89557   27.47273
     316      444        4    -0.49240   16.17634   22.30754    1.42073
     317      444        4    -0.49240   15.46171   20.32191    0.87280
     318      444        4    -0.49240   13.44301   23.85335    1.37481
     319      444        4    -0.49240   13.02027   21.80215    2.03540
     320      444        4    -0.49240   13.16372   19.43848   27.76709
     321      444        4    -0.49240   12.34815   21.43622   27.41512
     322      444        1     0.56890   15.69710   22.18045   26.66839
     323      444        1     0.56890   16.29543   21.07224    1.47293
     324      444        1     0.56890   12.93707   23.05799    2.18172
     325      444        1     0.56890   12.32159   20.18341   27.22715
     326      444        3     0.73440   21.43101   -0.33432   14.71356
     327      444        4    -0.49240   21.73194   26.43542   16.02933
     328      444        4    -0.49240   19.73308   27.21831   15.57353
     329      444        4    -0.49240   21.14907   27.13442   12.83390
     330      444        4    -0.49240   23.14319   27.64135   13.55496
     331      444        4    -0.49240   19.65985    0.82832   13.92120
     332      444        4    -0.49240   21.68422    1.50900   13.40978
     333      444        4    -0.49240   23.24227    0.37565   15.91124
     334      444        4    -0.49240   21.24814    0.96110   16.58980
     335      444        1     0.56890   20.48038   26.35345   16.07183
     336      444        1     0.56890   22.38307   27.07005   12.71011
     337      444        1     0.56890   20.42359    1.61266   13.33676
     338      444        1     0.56890   22.50563    0.94452   16.74183
     339      444        3     0.73440   14.44185    6.85150    0.77497
     340      444        4    -0.49240   12.45202    6.47060    2.14835
     341      444        4    -0.49240   13.24102    8.46677    1.69056
     342      444        4    -0.49240   13.05032    6.18737   27.46246
     343      444        4    -0.49240   13.55935    4.18066   28.14559
     344      444        4    -0.49240   15.58930    7.72426   28.48958
     345      444        4    -0.49240   16.23349    5.69940   27.93509
     346      444        4    -0.49240   15.17002    5.01975    1.93015
     347      444        4    -0.49240   15.79600    7.00030    2.61213
     348      444        1     0.56890   12.38429    7.72228    2.20711
     349      444        1     0.56890   12.96966    4.95536   27.32727
     350      444        1     0.56890   16.34730    6.95978   27.87262
     351      444        1     0.56890   15.77162    5.74127    2.75075
     352      444        3     0.73440    7.73557   -0.45590   14.61430
     353      444        4    -0.49240    8.09064    1.48907   16.09037
     354      444        4    -0.49240    6.10310    0.77012   15.49994
     355      444        4    -0.49240    7.47075   27.03171   16.49083
     356      444        4    -0.49240    9.45787   27.57306   15.77633
     357      444        4    -0.49240    5.89816   27.20701   13.77801
     358      444        4    -0.49240    7.93364   26.52889   13.30852
     359      444        4    -0.49240    9.53496    0.49039   13.54954
     360      444        4    -0.49240    7.53587    0.90652   12.76944
     361      444        1     0.56890    6.83813    1.53783   16.15169
     362      444        1     0.56890    8.70585   26.95444   16.59465
     363      444        1     0.56890    6.67453   26.40656   13.23351
     364      444        1     0.56890    8.79118    1.07429   12.73635
     365      444        3     0.73440   -0.04506   13.60497   21.60670
     366      444        4    -0.49240    1.95497   12.23123   22.02342
     367      444        4    -0.49240    1.18833   12.66896   20.01398
     368      444        4    -0.49240    1.36296   15.43466   21.37025
     369      444        4    -0.49240    0.83130   14.77435   23.37883
     370      444        4    -0.49240   27.42414   14.39690   19.81746
     371      444        4    -0.49240   26.75965   14.97446   21.82947
     372      444        4    -0.49240   27.80835   12.47119   23.44273
     373      444        4    -0.49240   27.20169   11.76935   21.46323
     374      444        1     0.56890    2.03598   12.15876   20.77298
     375      444        1     0.56890    1.43096   15.58290   22.60130
     376      444        1     0.56890   26.65935   15.02359   20.56733
     377      444        1     0.56890   27.21245   11.64425   22.72395
     378      444        3     0.73440   28.53815   14.37292    7.66526
     379      444        4    -0.49240    1.34447   12.40822    8.06543
     380      444        4    -0.49240    0.76691   13.09312    6.06198
     381      444        4    -0.49240    1.86610   15.62823    7.43422
     382      444        4    -0.49240    1.14662   15.17159    9.44081
     383      444        4    -0.49240   27.72248   15.51386    5.88543
     384      444        4    -0.49240   27.29530   16.26748    7.90342
     385      444        4    -0.49240   27.44134   13.54567    9.49729
     386      444        4    -0.49240   26.63010   13.10363    7.51608
     387      444        1     0.56890    1.39407   12.32165    6.81442
     388      444        1     0.56890    1.98253   15.73643    8.66584
     389      444        1     0.56890   27.21519   16.35632    6.64214
     390      444        1     0.56890   26.60028   12.97308    8.77594

Bonds

       1        1        1        2
       2        1        1       24
       3        3        2        3
       4        1        2       29
       5        1        4        5
       6        1        4        7
       7        3        5        6
       8        1        5       12
       9        3        7        8
      10        1        7        9
      11        3        9       10
      12        1        9       11
      13        1       11       12
      14        2       11       31
      15        3       12       13
      16        1       14       15
      17        1       14       22
      18        2       14      363
      19        3       15       16
      20        1       15       17
      21        3       17       18
      22        1       17       19
      23        1       19       20
      24        2       19       34
      25        3       20       21
      26        1       20       22
      27        3       22       23
      28        3       24       25
      29        1       24       26
      30        3       26       27
      31        1       26       28
      32        1       28       29
      33        2       28       37
      34        3       29       30
      35        1       31       32
      36        1       31       38
      37        3       32       33
      38        1       32       34
      39        1       34       35
      40        3       35       36