Created on Fri Feb 14 13:50:12 2025 

          11 atoms
          10 bonds
          18 angles
          18 dihedrals

           3 atom types
           3 bond types
           5 angle types
           1 dihedral types
           0.000000  20.000000 xlo xhi
           0.000000  20.000000 ylo yhi
           0.000000  20.000000 zlo zhi
           0.000000   0.000000   0.000000 xy xz yz

Masses

    1    12.010700000 # C_3
    2     1.007940000 # H_
    3    14.006700000 # N_3

Bond Coeffs

    1      331.069389        1.109401  # C_3 H_
    2      528.634538        1.451071  # C_3 N_3
    3      527.945261        1.044419  # N_3 H_

Angle Coeffs

    1       75.498766        0.343737        0.374972        0.281246 # H_ C_3 H_
    2      169.780468        0.343737        0.374972        0.281246 # H_ C_3 N_3
    3      260.869388        0.317506        0.313225        0.272502 # C_3 N_3 C_3
    4      144.695053        0.317506        0.313225        0.272502 # C_3 N_3 H_
    5       97.017167        0.317506        0.313225        0.272502 # H_ N_3 H_

Dihedral Coeffs

    1        0.054250               1               3 # H_ C_3 N_3 C_3

Pair Coeffs

    1        0.105000        3.430851 # C_3 C_3
    2        0.044000        2.571134 # H_ H_
    3        0.069000        3.260689 # N_3 N_3

Atoms

       1        1        1    -0.21337   -0.00000   -1.27400   -0.28000
       2        1        2     0.15079    0.89900   -1.27300   -0.90100
       3        1        2     0.15079   -0.00000   -2.12800    0.40200
       4        1        2     0.15079   -0.89900   -1.27300   -0.90100
       5        1        1    -0.21337    0.00000    1.27400   -0.28000
       6        1        2     0.15079   -0.89900    1.27300   -0.90100
       7        1        2     0.15079    0.00000    2.12800    0.40200
       8        1        2     0.15079    0.89900    1.27300   -0.90100
       9        1        3    -0.04839    0.00000    0.00000    0.54600
      10        1        2     0.28519   -0.82200    0.00000    1.16800
      11        1        2     0.28519    0.82200    0.00000    1.16800

Bonds

       1        1        1        2
       2        1        1        3
       3        1        1        4
       4        2        1        9
       5        1        5        6
       6        1        5        7
       7        1        5        8
       8        2        5        9
       9        3        9       10
      10        3        9       11

Angles

       1        1        2        1        3
       2        1        2        1        4
       3        2        2        1        9
       4        1        3        1        4
       5        2        3        1        9
       6        2        4        1        9
       7        1        6        5        7
       8        1        6        5        8
       9        2        6        5        9
      10        1        7        5        8
      11        2        7        5        9
      12        2        8        5        9
      13        3        1        9        5
      14        4        1        9       10
      15        4        1        9       11
      16        4        5        9       10
      17        4        5        9       11
      18        5       10        9       11

Dihedrals

       1        1        2        1        9        5
       2        1        2        1        9       10
       3        1        2        1        9       11
       4        1        3        1        9        5
       5        1        3        1        9       10
       6        1        3        1        9       11
       7        1        4        1        9        5
       8        1        4        1        9       10
       9        1        4        1        9       11
      10        1        6        5        9        1
      11        1        6        5        9       10
      12        1        6        5        9       11
      13        1        7        5        9        1
      14        1        7        5        9       10
      15        1        7        5        9       11
      16        1        8        5        9        1
      17        1        8        5        9       10
      18        1        8        5        9       11
