
#------------------------------------------------------------------------------#
# simulation settings
#------------------------------------------------------------------------------#

##### simulation variables

variable        seed 	equal  77229
variable        T       equal  300	    #K
variable        p       equal  0.0 	#bar
variable        damp_T  equal  100 		  	#K
variable        damp_P  equal  1000.0	  	#bar
variable        dT      equal  1.0 		 	#fs
variable        kb      equal  0.0019872041

## system setup ##

units           real
atom_style      full
boundary        p p p

pair_style      lj/cut/soft 1 0.5 12.5
bond_style      harmonic
angle_style     hybrid fourier cosine/periodic
dihedral_style  harmonic
improper_style  fourier

pair_modify 	tail yes mix arithmetic
special_bonds 	lj/coul 0.0 0.0 1.0

read_data 	 	../data.emin_pto-4c_In-3c_BTB_DMA_fe
Reading data file ...
  triclinic box = (1.0127974 1.2506642 1.0737052) to (27.573203 27.546212 27.449243) with tilt (-0.4871608 -0.79355401 -0.31961632)
  2 by 1 by 2 MPI processor grid
  reading atoms ...
  456 atoms
  reading velocities ...
  456 velocities
  scanning bonds ...
  8 = max bonds/atom
  scanning angles ...
  28 = max angles/atom
  scanning dihedrals ...
  12 = max dihedrals/atom
  scanning impropers ...
  3 = max impropers/atom
  reading bonds ...
  516 bonds
  reading angles ...
  972 angles
  reading dihedrals ...
  1164 dihedrals
  reading impropers ...
  648 impropers
Finding 1-2 1-3 1-4 neighbors ...
  special bond factors lj:    0        0        1       
  special bond factors coul:  0        0        1       
     8 = max # of 1-2 neighbors
     9 = max # of 1-3 neighbors
    12 = max # of special neighbors
  special bonds CPU = 0.000 seconds
  read_data CPU = 0.004 seconds
include 	 	../non_bonded_pto-4c_In-3c_BTB_lj.param
### Parameters for Equilibration ###

### Parameters for MOF ###

mass 1 12.010700000
mass 2 1.007940000
mass 3 114.818000000
mass 4 15.999400000


bond_coeff 1 462.655054 1.379256
bond_coeff 2 391.669513 1.458000
bond_coeff 3 357.440381 1.081418
bond_coeff 4 187.991596 2.033568
bond_coeff 5 646.680887 1.311940

angle_coeff 1 cosine/periodic 111.297508 -1 3
angle_coeff 2 cosine/periodic 102.183280 -1 3
angle_coeff 3 cosine/periodic 57.289016 -1 3
angle_coeff 4 fourier 127.915933 0.343737 0.374972 0.281246
angle_coeff 5 cosine/periodic 77.909182 -1 3
angle_coeff 6 cosine/periodic 131.755710 -1 3
angle_coeff 7 cosine/periodic 187.136328 -1 3

dihedral_coeff 1 3.368555 -1 2
dihedral_coeff 2 1.250000 -1 2
dihedral_coeff 3 6.737110 -1 2

improper_coeff 1 2.000000 1.000000 -1.000000 0.000000 0

### Parameters for Molecule ###

mass 5 12.010700000
mass 6 1.007940000
mass 7 14.006700000


bond_coeff 6 331.069389 1.109401
bond_coeff 7 528.634538 1.451071
bond_coeff 8 527.945261 1.044419

angle_coeff 8 fourier 75.498766 0.343737 0.374972 0.281246
angle_coeff 9 fourier 169.780468 0.343737 0.374972 0.281246
angle_coeff 10 fourier 260.869388 0.317506 0.313225 0.272502
angle_coeff 11 fourier 144.695053 0.317506 0.313225 0.272502
angle_coeff 12 fourier 97.017167 0.317506 0.313225 0.272502

dihedral_coeff 4 0.054250 1 3


pair_coeff 1 1 0.105 3.43085 1 12.5
pair_coeff 1 2 0.0679706 3.00099 1 12.5
pair_coeff 1 3 0.250789 3.70347 1 12.5
pair_coeff 1 4 0.0793725 3.2745 1 12.5
pair_coeff 1 5 0.105 3.43085 1 12.5
pair_coeff 1 6 0.0679706 3.00099 1 12.5
pair_coeff 1 7 0.0851176 3.34577 1 12.5
pair_coeff 2 2 0.044 2.57113 1 12.5
pair_coeff 2 3 0.162345 3.27361 1 12.5
pair_coeff 2 4 0.0513809 2.84464 1 12.5
pair_coeff 2 5 0.0679706 3.00099 1 12.5
pair_coeff 2 6 0.044 2.57113 1 12.5
pair_coeff 2 7 0.0550999 2.91591 1 12.5
pair_coeff 3 3 0.599 3.97608 1 12.5
pair_coeff 3 4 0.189578 3.54711 1 12.5
pair_coeff 3 5 0.250789 3.70347 1 12.5
pair_coeff 3 6 0.162345 3.27361 1 12.5
pair_coeff 3 7 0.2033 3.61838 1 12.5
pair_coeff 4 4 0.06 3.11815 1 12.5
pair_coeff 4 5 0.0793725 3.2745 1 12.5
pair_coeff 4 6 0.0513809 2.84464 1 12.5
pair_coeff 4 7 0.0643428 3.18942 1 12.5
pair_coeff 5 5 0.105 3.43085 1 12.5
pair_coeff 5 6 0.0679706 3.00099 1 12.5
pair_coeff 5 7 0.0851176 3.34577 1 12.5
pair_coeff 6 6 0.044 2.57113 1 12.5
pair_coeff 6 7 0.0550999 2.91591 1 12.5
pair_coeff 7 7 0.069 3.26069 1 12.5

group			fram type < 5
390 atoms in group fram

fix				SPRING fram spring/self 10 	# harmonic restraint to framework

group			cation type > 4
66 atoms in group cation
group			center type 7
6 atoms in group center
fix			SPRING2 center spring/self 1


#------------------------------------------------------------------------------#
# equilibration
#------------------------------------------------------------------------------#

reset_timestep	0

variable 		delta equal ${lambda}
variable 		delta equal 0
fix 			ADAPT all adapt 0 pair lj/cut/soft lambda * * v_delta

thermo_style	custom step etotal ke pe temp press density vol evdwl etail ecoul elong epair
thermo 			5000
velocity 		all create ${T} ${seed}
velocity 		all create 300 ${seed}
velocity 		all create 300 77229

fix				f1 all nve
fix 			f2 all langevin ${T} ${T} ${damp_T} ${seed} zero yes
fix 			f2 all langevin 300 ${T} ${damp_T} ${seed} zero yes
fix 			f2 all langevin 300 300 ${damp_T} ${seed} zero yes
fix 			f2 all langevin 300 300 100 ${seed} zero yes
fix 			f2 all langevin 300 300 100 77229 zero yes
compute 		c1 all temp/com
fix_modify		f2 temp c1

run				500000
Generated 0 of 21 mixed pair_coeff terms from arithmetic mixing rule
Neighbor list info ...
  update every 1 steps, delay 10 steps, check yes
  max neighbors/atom: 2000, page size: 100000
  master list distance cutoff = 14.5
  ghost atom cutoff = 14.5
  binsize = 7.25, bins = 4 4 4
  1 neighbor lists, perpetual/occasional/extra = 1 0 0
  (1) pair lj/cut/soft, perpetual
      attributes: half, newton on
      pair build: half/bin/newton/tri
      stencil: half/bin/3d/tri
      bin: standard
WARNING: Inconsistent image flags (../domain.cpp:819)
Per MPI rank memory allocation (min/avg/max) = 20.35 | 20.35 | 20.35 Mbytes
   Step         TotEng         KinEng         PotEng          Temp          Press         Density         Volume         E_vdwl         E_tail         E_coul         E_long         E_pair    
         0   4708.0649      406.88057      4301.1843      300           -6449.8033      0.40101743     18421.214      0              0              0              0              0            
      5000   4912.3631      381.31135      4531.0518      281.14737     -3263.2982      0.40101743     18421.214      0              0              0              0              0            
     10000   4938.18        399.79265      4538.3874      294.77395     -3041.7401      0.40101743     18421.214      0              0              0              0              0            
     15000   4921.6462      404.91565      4516.7306      298.55123     -2981.7237      0.40101743     18421.214      0              0              0              0              0            
     20000   4961.6163      410.20443      4551.4119      302.45074     -2994.6941      0.40101743     18421.214      0              0              0              0              0            
     25000   4947.2956      437.82362      4509.472       322.81484     -2406.4828      0.40101743     18421.214      0              0              0              0              0            
     30000   4926.1828      378.02709      4548.1557      278.72583     -2779.5309      0.40101743     18421.214      0              0              0              0              0            
     35000   5010.9285      438.70217      4572.2264      323.46261     -2495.324       0.40101743     18421.214      0              0              0              0              0            
     40000   4973.7133      423.60065      4550.1127      312.328       -1839.1709      0.40101743     18421.214      0              0              0              0              0            
     45000   4914.1544      398.31749      4515.8369      293.68629     -1825.8261      0.40101743     18421.214      0              0              0              0              0            
     50000   4953.9754      403.18066      4550.7948      297.27199     -2684.8728      0.40101743     18421.214      0              0              0              0              0            
     55000   4972.6536      417.15585      4555.4977      307.57614     -2946.2421      0.40101743     18421.214      0              0              0              0              0            
     60000   4994.5577      437.69783      4556.8599      322.72209     -2913.9596      0.40101743     18421.214      0              0              0              0              0            
     65000   4979.2475      444.309        4534.9385      327.59662     -2402.034       0.40101743     18421.214      0              0              0              0              0            
     70000   4945.2636      410.16977      4535.0939      302.42518     -1961.8619      0.40101743     18421.214      0              0              0              0              0            
     75000   4944.8942      410.66281      4534.2314      302.78871     -1412.8256      0.40101743     18421.214      0              0              0              0              0            
     80000   4918.1179      397.18792      4520.93        292.85344     -1849.3622      0.40101743     18421.214      0              0              0              0              0            
     85000   4935.9062      412.67959      4523.2266      304.27572     -1750.8283      0.40101743     18421.214      0              0              0              0              0            
     90000   4957.3398      441.43738      4515.9024      325.47932     -3221.2289      0.40101743     18421.214      0              0              0              0              0            
     95000   4977.9161      427.84047      4550.0757      315.45409     -3413.2135      0.40101743     18421.214      0              0              0              0              0            
    100000   4957.9207      411.5097       4546.411       303.41314     -1847.598       0.40101743     18421.214      0              0              0              0              0            
    105000   4939.9472      387.50773      4552.4394      285.71607     -1410.0459      0.40101743     18421.214      0              0              0              0              0            
    110000   4996.7259      429.90318      4566.8227      316.97496     -1960.9612      0.40101743     18421.214      0              0              0              0              0            
    115000   4906.455       406.98034      4499.4747      300.07356     -2738.1332      0.40101743     18421.214      0              0              0              0              0            
    120000   4916.7848      386.06169      4530.7231      284.64988     -3030.4888      0.40101743     18421.214      0              0              0              0              0            
    125000   4925.9513      412.10765      4513.8437      303.85401     -3554.1372      0.40101743     18421.214      0              0              0              0              0            
    130000   4991.342       430.24332      4561.0987      317.22575     -2641.4832      0.40101743     18421.214      0              0              0              0              0            
    135000   4914.4975      378.19836      4536.2991      278.85211     -2714.5931      0.40101743     18421.214      0              0              0              0              0            
    140000   4920.7783      402.7167       4518.0616      296.92991     -1591.1416      0.40101743     18421.214      0              0              0              0              0            
    145000   4957.2458      401.58688      4555.659       296.09687     -3101.64        0.40101743     18421.214      0              0              0              0              0            
    150000   4960.8498      413.6873       4547.1625      305.01872     -2709.1053      0.40101743     18421.214      0              0              0              0              0            
    155000   4950.3748      408.50975      4541.8651      301.20122     -1731.6245      0.40101743     18421.214      0              0              0              0              0            
    160000   4928.022       420.8371       4507.1849      310.29039     -1910.4988      0.40101743     18421.214      0              0              0              0              0            
    165000   4908.7209      398.67592      4510.0449      293.95057     -1743.5446      0.40101743     18421.214      0              0              0              0              0            
    170000   4992.1862      432.28768      4559.8985      318.73309     -3103.8755      0.40101743     18421.214      0              0              0              0              0            
    175000   4961.921       419.43814      4542.4829      309.25891     -2787.9876      0.40101743     18421.214      0              0              0              0              0            
    180000   4952.8796      410.90216      4541.9774      302.96518     -1513.0746      0.40101743     18421.214      0              0              0              0              0            
    185000   4948.1285      427.00201      4521.1265      314.83588     -2979.5871      0.40101743     18421.214      0              0              0              0              0            
    190000   4933.4737      391.34259      4542.1311      288.54358     -2377.7318      0.40101743     18421.214      0              0              0              0              0            
    195000   4903.3489      393.22206      4510.1269      289.92935     -2690.9131      0.40101743     18421.214      0              0              0              0              0            
    200000   4944.7914      426.30702      4518.4844      314.32345     -3098.6262      0.40101743     18421.214      0              0              0              0              0            
    205000   4947.4853      426.5385       4520.9468      314.49412     -2682.1456      0.40101743     18421.214      0              0              0              0              0            
    210000   4933.4407      422.31874      4511.1219      311.38283     -2987.4762      0.40101743     18421.214      0              0              0              0              0            
    215000   4975.3468      431.53132      4543.8155      318.17542     -2700.2527      0.40101743     18421.214      0              0              0              0              0            
    220000   4940.6886      380.98009      4559.7085      280.90313     -2624.4984      0.40101743     18421.214      0              0              0              0              0            
    225000   4925.5618      379.16004      4546.4018      279.56118     -4005.8564      0.40101743     18421.214      0              0              0              0              0            
    230000   4944.4642      410.20473      4534.2594      302.45096     -1979.1924      0.40101743     18421.214      0              0              0              0              0            
    235000   4971.1265      424.37158      4546.7549      312.89642     -3272.0631      0.40101743     18421.214      0              0              0              0              0            
    240000   4971.3094      417.14808      4554.1613      307.57041     -2752.7451      0.40101743     18421.214      0              0              0              0              0            
    245000   4962.6899      423.09246      4539.5974      311.9533      -3814.2386      0.40101743     18421.214      0              0              0              0              0            
    250000   4993.8062      439.62702      4554.1792      324.14452     -2085.4927      0.40101743     18421.214      0              0              0              0              0            
    255000   4938.6774      396.61271      4542.0647      292.42933     -1504.8091      0.40101743     18421.214      0              0              0              0              0            
    260000   4943.6918      416.09056      4527.6012      306.79068     -2975.7215      0.40101743     18421.214      0              0              0              0              0            
    265000   4940.2119      417.80992      4522.402       308.0584      -3077.9565      0.40101743     18421.214      0              0              0              0              0            
    270000   4930.2593      406.67549      4523.5838      299.84879     -3116.9886      0.40101743     18421.214      0              0              0              0              0            
    275000   4909.3726      404.84321      4504.5294      298.49782     -2268.4259      0.40101743     18421.214      0              0              0              0              0            
    280000   4950.2083      428.31943      4521.8889      315.80724     -3205.8073      0.40101743     18421.214      0              0              0              0              0            
    285000   4968.8888      409.82699      4559.0618      302.17245     -1758.8299      0.40101743     18421.214      0              0              0              0              0            
    290000   4974.9178      441.61458      4533.3032      325.60998     -2319.6008      0.40101743     18421.214      0              0              0              0              0            
    295000   4947.3624      416.10183      4531.2606      306.79899     -3240.131       0.40101743     18421.214      0              0              0              0              0            
    300000   4933.2387      407.39459      4525.8441      300.37899     -3607.4816      0.40101743     18421.214      0              0              0              0              0            
    305000   4967.6575      430.18019      4537.4773      317.17921     -1512.8691      0.40101743     18421.214      0              0              0              0              0            
    310000   4910.7385      396.09604      4514.6425      292.04838     -2523.5065      0.40101743     18421.214      0              0              0              0              0            
    315000   4954.1481      418.65854      4535.4896      308.6841      -2249.7911      0.40101743     18421.214      0              0              0              0              0            
    320000   4906.83        371.32579      4535.5042      273.78485     -1800.8074      0.40101743     18421.214      0              0              0              0              0            
    325000   4932.0706      396.34339      4535.7272      292.23076     -2704.2311      0.40101743     18421.214      0              0              0              0              0            
    330000   4932.2332      395.6169       4536.6163      291.69511     -3548.6851      0.40101743     18421.214      0              0              0              0              0            
    335000   4934.779       393.38273      4541.3963      290.04781     -2281.0271      0.40101743     18421.214      0              0              0              0              0            
    340000   4921.7023      382.79724      4538.9051      282.24295     -3789.2663      0.40101743     18421.214      0              0              0              0              0            
    345000   4947.6041      400.98508      4546.619       295.65316     -3034.3046      0.40101743     18421.214      0              0              0              0              0            
    350000   4975.5113      430.88278      4544.6285      317.69724     -3664.2072      0.40101743     18421.214      0              0              0              0              0            
    355000   4950.9604      435.84711      4515.1133      321.35753     -2405.2182      0.40101743     18421.214      0              0              0              0              0            
    360000   4945.916       400.82393      4545.0921      295.53434     -3880.9257      0.40101743     18421.214      0              0              0              0              0            
    365000   4950.0262      416.79323      4533.233       307.30877     -866.30385      0.40101743     18421.214      0              0              0              0              0            
    370000   4948.6447      406.03614      4542.6086      299.37739     -2824.1149      0.40101743     18421.214      0              0              0              0              0            
    375000   4926.1825      414.79881      4511.3837      305.83825     -1775.3933      0.40101743     18421.214      0              0              0              0              0            
    380000   4935.8448      411.85168      4523.9931      303.66528     -1820.9776      0.40101743     18421.214      0              0              0              0              0            
    385000   4940.7509      424.07883      4516.6721      312.68057     -3209.5045      0.40101743     18421.214      0              0              0              0              0            
    390000   4949.415       402.42007      4546.995       296.7112      -3397.5942      0.40101743     18421.214      0              0              0              0              0            
    395000   4933.839       412.23702      4521.602       303.9494      -2621.9897      0.40101743     18421.214      0              0              0              0              0            
    400000   4955.2362      403.34156      4551.8946      297.39063     -3087.015       0.40101743     18421.214      0              0              0              0              0            
    405000   4964.566       443.55395      4521.012       327.03991     -3961.2585      0.40101743     18421.214      0              0              0              0              0            
    410000   4938.5321      395.68771      4542.8444      291.74731     -1811.7118      0.40101743     18421.214      0              0              0              0              0            
    415000   4958.9472      425.53309      4533.4141      313.75282     -2546.3213      0.40101743     18421.214      0              0              0              0              0            
    420000   4932.8338      423.76284      4509.0709      312.44759     -2656.9026      0.40101743     18421.214      0              0              0              0              0            
    425000   4955.3481      422.01222      4533.3358      311.15682     -3107.153       0.40101743     18421.214      0              0              0              0              0            
    430000   4969.426       438.47199      4530.954       323.29289     -2774.7501      0.40101743     18421.214      0              0              0              0              0            
    435000   4927.7171      408.54282      4519.1743      301.22561     -2906.2113      0.40101743     18421.214      0              0              0              0              0            
    440000   4949.284       414.08576      4535.1983      305.31251     -2781.1605      0.40101743     18421.214      0              0              0              0              0            
    445000   4968.3769      420.57331      4547.8036      310.09589     -2583.3838      0.40101743     18421.214      0              0              0              0              0            
    450000   4923.6148      404.05982      4519.5549      297.92022     -2463.0287      0.40101743     18421.214      0              0              0              0              0            
    455000   4937.394       412.78025      4524.6138      304.34994     -2928.4038      0.40101743     18421.214      0              0              0              0              0            
    460000   5008.2767      448.0237       4560.253       330.33553     -3042.429       0.40101743     18421.214      0              0              0              0              0            
    465000   4928.6958      392.89448      4535.8013      289.68782     -3434.0466      0.40101743     18421.214      0              0              0              0              0            
    470000   4964.9467      423.36684      4541.5799      312.15561     -3670.5641      0.40101743     18421.214      0              0              0              0              0            
    475000   4927.7318      394.29185      4533.44        290.71812     -2453.4915      0.40101743     18421.214      0              0              0              0              0            
    480000   4945.2553      396.79045      4548.4649      292.56038     -2562.849       0.40101743     18421.214      0              0              0              0              0            
    485000   4999.7442      432.59873      4567.1455      318.96244     -2550.3257      0.40101743     18421.214      0              0              0              0              0            
    490000   4978.6085      425.2634       4553.3451      313.55397     -3107.9478      0.40101743     18421.214      0              0              0              0              0            
    495000   4956.6428      414.1878       4542.455       305.38774     -1984.3483      0.40101743     18421.214      0              0              0              0              0            
    500000   4912.3243      384.72379      4527.6005      283.66343     -2486.7702      0.40101743     18421.214      0              0              0              0              0            
Loop time of 48.1043 on 4 procs for 500000 steps with 456 atoms

Performance: 898.049 ns/day, 0.027 hours/ns, 10394.084 timesteps/s
99.5% CPU use with 4 MPI tasks x no OpenMP threads

MPI task timing breakdown:
Section |  min time  |  avg time  |  max time  |%varavg| %total
---------------------------------------------------------------
Pair    | 20.413     | 24.537     | 28.482     |  59.6 | 51.01
Bond    | 4.4823     | 4.6646     | 4.814      |   5.5 |  9.70
Neigh   | 3.7901     | 3.793      | 3.7958     |   0.1 |  7.88
Comm    | 8.2356     | 12.223     | 16.531     |  86.5 | 25.41
Output  | 0.0010012  | 0.0010653  | 0.0012407  |   0.3 |  0.00
Modify  | 2.4209     | 2.4305     | 2.4465     |   0.6 |  5.05
Other   |            | 0.4549     |            |       |  0.95

Nlocal:            114 ave         123 max         100 min
Histogram: 1 0 0 0 0 0 1 1 0 1
Nghost:           2237 ave        2290 max        2188 min
Histogram: 1 1 0 0 0 0 0 1 0 1
Neighs:        17731.2 ave       20667 max       13520 min
Histogram: 1 0 0 0 1 0 0 0 1 1

Total # of neighbors = 70925
Ave neighs/atom = 155.53728
Ave special neighs/atom = 6.3157895
Neighbor list builds = 10766
Dangerous builds = 0
unfix			ADAPT

#------------------------------------------------------------------------------#
# sampling
#------------------------------------------------------------------------------#

reset_timestep	0

variable		ddlambda equal 0.001
variable		ddlambda_n equal -0.001

compute 		ALL1 all fep ${T} pair lj/cut/soft lambda * * v_ddlambda
compute 		ALL1 all fep 300 pair lj/cut/soft lambda * * v_ddlambda
compute 		ALL2 all fep ${T} pair lj/cut/soft lambda * * v_ddlambda_n
compute 		ALL2 all fep 300 pair lj/cut/soft lambda * * v_ddlambda_n
variable 		dudlam equal (c_ALL1[1]-c_ALL2[1])/0.002

fix				ALL all ave/time 250 1 250 v_dudlam file LJ_${lambda}.lmp
fix				ALL all ave/time 250 1 250 v_dudlam file LJ_0.lmp

thermo_style	custom step etotal ke pe temp press density vol evdwl etail ecoul elong epair v_dudlam
thermo			250

run 			800000
Generated 0 of 21 mixed pair_coeff terms from arithmetic mixing rule
FEP settings ...
  temperature = 300.000000
  tail no
  pair lj/cut/soft lambda 1-7 1-7
FEP settings ...
  temperature = 300.000000
  tail no
  pair lj/cut/soft lambda 1-7 1-7
WARNING: Inconsistent image flags (../domain.cpp:819)
Per MPI rank memory allocation (min/avg/max) = 20.35 | 20.35 | 20.35 Mbytes
   Step         TotEng         KinEng         PotEng          Temp          Press         Density         Volume         E_vdwl         E_tail         E_coul         E_long         E_pair        v_dudlam   
         0   4912.3243      384.72379      4527.6005      283.66343     -2486.7702      0.40101743     18421.214      0              0              0              0              0             -178.09742    
       250   4917.7408      389.27476      4528.466       287.01893     -2268.2279      0.40101743     18421.214      0              0              0              0              0             -171.99355    
       500   4942.3211      426.32796      4515.9931      314.33889     -1784.3353      0.40101743     18421.214      0              0              0              0              0             -175.90935    
       750   4936.8515      393.813        4543.0385      290.36505     -1807.5491      0.40101743     18421.214      0              0              0              0              0             -179.57063    
      1000   4956.9881      404.95346      4552.0347      298.57911     -2815.9888      0.40101743     18421.214      0              0              0              0              0             -183.20013    
      1250   4916.9684      404.74687      4512.2215      298.42678     -1544.4362      0.40101743     18421.214      0              0              0              0              0             -178.7902     
      1500   4943.0118      389.42012      4553.5917      287.12611     -3884.8048      0.40101743     18421.214      0              0              0              0              0             -178.02498    
      1750   4934.0857      404.99718      4529.0886      298.61134     -2480.0936      0.40101743     18421.214      0              0              0              0              0             -181.04248    
      2000   4955.6483      418.73256      4536.9157      308.73867     -2284.2646      0.40101743     18421.214      0              0              0              0              0             -179.7376     
      2250   4975.5592      429.66525      4545.894       316.79953     -2802.1646      0.40101743     18421.214      0              0              0              0              0             -186.89451    
      2500   4964.2204      419.45309      4544.7673      309.26993     -1947.2865      0.40101743     18421.214      0              0              0              0              0             -185.31568    
      2750   4902.2882      374.01257      4528.2756      275.76586     -3601.3533      0.40101743     18421.214      0              0              0              0              0             -179.41693    
      3000   4937.7673      413.18449      4524.5828      304.64798     -3397.9514      0.40101743     18421.214      0              0              0              0              0             -180.41002    
      3250   4931.7788      393.56888      4538.2099      290.18507     -3133.5481      0.40101743     18421.214      0              0              0              0              0             -186.99368    
      3500   4950.2607      399.01595      4551.2448      294.20128     -2518.3904      0.40101743     18421.214      0              0              0              0              0             -180.4877     
      3750   5006.2137      437.63022      4568.5835      322.67224     -869.49385      0.40101743     18421.214      0              0              0              0              0             -191.91613    
      4000   4968.9347      432.78134      4536.1534      319.09708     -3452.5175      0.40101743     18421.214      0              0              0              0              0             -185.4417     
      4250   4979.6335      421.60552      4558.028       310.85695     -2405.5264      0.40101743     18421.214      0              0              0              0              0             -190.77786    
      4500   4910.4534      388.85005      4521.6034      286.70579     -2778.8054      0.40101743     18421.214      0              0              0              0              0             -190.31858    
      4750   4940.3987      412.01824      4528.3805      303.78809     -1692.1713      0.40101743     18421.214      0              0              0              0              0             -184.40705    
      5000   4917.2335      404.17316      4513.0604      298.00378     -2093.4991      0.40101743     18421.214      0              0              0              0              0             -186.55861    
      5250   4944.4592      413.05161      4531.4076      304.55001     -3817.7331      0.40101743     18421.214      0              0              0              0              0             -183.57168    
      5500   5001.6118      447.94099      4553.6708      330.27455     -1352.4714      0.40101743     18421.214      0              0              0              0              0             -179.84261    
      5750   4991.2274      430.17929      4561.0481      317.17854     -3542.8087      0.40101743     18421.214      0              0              0              0              0             -180.44063    
      6000   4959.7381      422.97548      4536.7627      311.86705     -3783.3736      0.40101743     18421.214      0              0              0              0              0             -182.88271    
      6250   4947.063       394.65144      4552.4116      290.98325     -2103.1555      0.40101743     18421.214      0              0              0              0              0             -191.14654    
      6500   4926.0134      382.91284      4543.1006      282.32818     -2398.334       0.40101743     18421.214      0              0              0              0              0             -188.36344    
      6750   4916.1797      387.40991      4528.7698      285.64395     -2410.469       0.40101743     18421.214      0              0              0              0              0             -189.79572    
      7000   4942.7547      419.26766      4523.4871      309.13321     -1190.1972      0.40101743     18421.214      0              0              0              0              0             -192.89138    
      7250   5002.4349      441.67786      4560.7571      325.65663     -1370.2215      0.40101743     18421.214      0              0              0              0              0             -187.79338    
      7500   4960.7073      412.82924      4547.8781      304.38605     -1787.8301      0.40101743     18421.214      0              0              0              0              0             -194.07575    
      7750   4944.0382      418.51102      4525.5272      308.57533     -2848.2008      0.40101743     18421.214      0              0              0              0              0             -193.72334    
      8000   4941.4464      407.24717      4534.1992      300.2703      -2479.1702      0.40101743     18421.214      0              0              0              0              0             -196.33549    
      8250   4906.6373      359.78018      4546.8571      265.27208     -2650.1109      0.40101743     18421.214      0              0              0              0              0             -191.36672    
      8500   4983.0751      441.11324      4541.9619      325.24033     -849.97946      0.40101743     18421.214      0              0              0              0              0             -190.69616    
      8750   4953.6407      404.5613       4549.0794      298.28996     -2831.7212      0.40101743     18421.214      0              0              0              0              0             -193.1726     
      9000   4936.0021      406.90314      4529.099       300.01664     -2667.2526      0.40101743     18421.214      0              0              0              0              0             -194.55677    
      9250   4932.5553      398.39096      4534.1644      293.74047     -3329.7038      0.40101743     18421.214      0              0              0              0              0             -192.79146    
      9500   4978.6177      423.65989      4554.9578      312.37168     -1520.2674      0.40101743     18421.214      0              0              0              0              0             -192.22767    
      9750   4973.868       418.05661      4555.8114      308.24029     -1449.5632      0.40101743     18421.214      0              0              0              0              0             -194.78217    
     10000   4909.6452      386.78791      4522.8573      285.18534     -998.49065      0.40101743     18421.214      0              0              0              0              0             -197.72525    
     10250   4947.1449      418.85953      4528.2854      308.83229     -2668.1444      0.40101743     18421.214      0              0              0              0              0             -193.97697    
     10500   4941.0761      424.79278      4516.2833      313.20698     -2540.5539      0.40101743     18421.214      0              0              0              0              0             -193.9262     
     10750   4924.3378      408.80088      4515.5369      301.41587     -2008.347       0.40101743     18421.214      0              0              0              0              0             -183.5598     
     11000   4952.5509      430.0331       4522.5178      317.07076     -2376.5556      0.40101743     18421.214      0              0              0              0              0             -182.91056    
     11250   4926.8416      400.93144      4525.9102      295.6136      -3343.2708      0.40101743     18421.214      0              0              0              0              0             -185.83314    
     11500   4952.4457      410.2794       4542.1663      302.50601     -2308.1387      0.40101743     18421.214      0              0              0              0              0             -181.3107     
     11750   4942.0182      418.73844      4523.2797      308.74301     -2921.9439      0.40101743     18421.214      0              0              0              0              0             -177.32242    
     12000   4935.9352      401.62772      4534.3074      296.12698     -3344.0275      0.40101743     18421.214      0              0              0              0              0             -172.42694    
     12250   4941.5297      413.66563      4527.8641      305.00274     -2285.9383      0.40101743     18421.214      0              0              0              0              0             -179.43302    
     12500   4942.2687      409.94592      4532.3228      302.26014     -2930.4304      0.40101743     18421.214      0              0              0              0              0             -177.12722    
     12750   4920.9585      392.08931      4528.8692      289.09415     -2322.5879      0.40101743     18421.214      0              0              0              0              0             -178.92148    
     13000   4977.6397      428.11049      4549.5292      315.65318     -2734.9957      0.40101743     18421.214      0              0              0              0              0             -182.64683    
     13250   4943.2333      398.69137      4544.5419      293.96196     -2045.9068      0.40101743     18421.214      0              0              0              0              0             -179.66043    
     13500   4953.1813      393.33165      4559.8496      290.01015     -2151.5055      0.40101743     18421.214      0              0              0              0              0             -177.15079    
     13750   4940.2521      404.69443      4535.5577      298.38812     -2415.5709      0.40101743     18421.214      0              0              0              0              0             -186.43544    
     14000   4940.9822      398.60866      4542.3736      293.90098     -1528.1138      0.40101743     18421.214      0              0              0              0              0             -190.24662    
     14250   4938.1357      401.14809      4536.9876      295.77334     -2260.9404      0.40101743     18421.214      0              0              0              0              0             -192.60003    
     14500   4986.6132      430.2348       4556.3784      317.21947     -3386.4724      0.40101743     18421.214      0              0              0              0              0             -189.97564    
     14750   4942.2957      390.49276      4551.803       287.91699     -2043.4034      0.40101743     18421.214      0              0              0              0              0             -191.76491    
     15000   4936.3432      395.54842      4540.7948      291.64461     -2962.9386      0.40101743     18421.214      0              0              0              0              0             -188.56593    
     15250   4927.0147      385.03988      4541.9748      283.89648     -1811.4648      0.40101743     18421.214      0              0              0              0              0             -188.86865    
     15500   4920.1325      401.66925      4518.4633      296.1576      -3784.8081      0.40101743     18421.214      0              0              0              0              0             -190.04977    
     15750   4969.4505      419.77693      4549.6736      309.50871     -2999.269       0.40101743     18421.214      0              0              0              0              0             -193.95255    
     16000   4950.2259      401.02396      4549.202       295.68182     -2866.3128      0.40101743     18421.214      0              0              0              0              0             -192.4731     
     16250   4951.6553      408.54805      4543.1073      301.22946     -3311.987       0.40101743     18421.214      0              0              0              0              0             -189.7957     
     16500   4974.3102      436.39859      4537.9116      321.76414     -2509.2876      0.40101743     18421.214      0              0              0              0              0             -186.21686    
     16750   4969.3925      431.49071      4537.9018      318.14547     -2289.1848      0.40101743     18421.214      0              0              0              0              0             -189.0048     
     17000   4908.2718      407.21704      4501.0548      300.24808     -503.43169      0.40101743     18421.214      0              0              0              0              0             -183.9606     
     17250   4933.4887      404.94818      4528.5405      298.57522     -2154.7165      0.40101743     18421.214      0              0              0              0              0             -184.47912    
     17500   4929.9541      405.40072      4524.5534      298.90888     -2242.2761      0.40101743     18421.214      0              0              0              0              0             -177.83828    
     17750   4946.8654      410.61254      4536.2529      302.75164     -3370.3462      0.40101743     18421.214      0              0              0              0              0             -185.32205    
     18000   4933.5618      397.07245      4536.4893      292.76831     -3496.4252      0.40101743     18421.214      0              0              0              0              0             -169.71172    
     18250   4951.8101      411.05106      4540.759       303.07497     -2866.4487      0.40101743     18421.214      0              0              0              0              0             -171.36602    
     18500   4923.7428      388.99089      4534.752       286.80963     -3093.964       0.40101743     18421.214      0              0              0              0              0             -188.04961    
     18750   4965.297       418.2705       4547.0265      308.39799     -529.10312      0.40101743     18421.214      0              0              0              0              0             -188.20337    
     19000   4963.1901      418.59635      4544.5937      308.63824     -1747.9943      0.40101743     18421.214      0              0              0              0              0             -187.0061     
     19250   4957.755       390.33442      4567.4206      287.80024     -1833.3917      0.40101743     18421.214      0              0              0              0              0             -175.70767    
     19500   4932.4488      414.0532       4518.3956      305.2885      -2040.2908      0.40101743     18421.214      0              0              0              0              0             -183.00133    
     19750   4969.0583      424.10523      4544.9531      312.70003     -3611.5797      0.40101743     18421.214      0              0              0              0              0             -185.47074    
     20000   4939.1551      402.90292      4536.2522      297.06721     -1932.9777      0.40101743     18421.214      0              0              0              0              0             -179.53972    
     20250   4938.2353      408.32767      4529.9076      301.06697     -2175.2679      0.40101743     18421.214      0              0              0              0              0             -166.20442    
     20500   4929.0293      399.59218      4529.4371      294.62615     -2828.4245      0.40101743     18421.214      0              0              0              0              0             -169.3564     
     20750   4936.1806      406.87732      4529.3033      299.9976      -1599.5567      0.40101743     18421.214      0              0              0              0              0             -164.31627    
     21000   4951.9112      408.79972      4543.1115      301.41502     -2217.1953      0.40101743     18421.214      0              0              0              0              0             -172.50528    
     21250   4952.6429      408.87153      4543.7714      301.46796     -2549.6546      0.40101743     18421.214      0              0              0              0              0             -164.95423    
     21500   4940.9699      404.99918      4535.9707      298.61282     -1361.9295      0.40101743     18421.214      0              0              0              0              0             -161.93064    
     21750   4938.5109      400.0387       4538.4722      294.95537     -2915.1069      0.40101743     18421.214      0              0              0              0              0             -164.82275    
     22000   4962.3947      412.57636      4549.8183      304.1996      -1748.7267      0.40101743     18421.214      0              0              0              0              0             -157.08323    
     22250   4930.9473      400.35426      4530.5931      295.18804     -2125.5632      0.40101743     18421.214      0              0              0              0              0             -169.61105    
     22500   4948.5452      407.65215      4540.8931      300.5689      -2639.0385      0.40101743     18421.214      0              0              0              0              0             -184.4111     
     22750   4982.3208      448.78457      4533.5362      330.89653     -2725.9462      0.40101743     18421.214      0              0              0              0              0             -184.68604    
     23000   4974.7037      439.99892      4534.7048      324.41872     -3222.3252      0.40101743     18421.214      0              0              0              0              0             -188.45396    
     23250   4962.982       412.78338      4550.1986      304.35224     -3728.7346      0.40101743     18421.214      0              0              0              0              0             -182.66363    
     23500   4947.2791      420.89052      4526.3886      310.32977     -3028.6042      0.40101743     18421.214      0              0              0              0              0             -174.28961    
     23750   4947.9584      415.05769      4532.9007      306.02913     -1627.0989      0.40101743     18421.214      0              0              0              0              0             -168.21159    
     24000   4947.7652      406.35369      4541.4115      299.61152     -2189.5214      0.40101743     18421.214      0              0              0              0              0             -168.6033     
     24250   4946.2391      401.41168      4544.8274      295.9677      -2398.9762      0.40101743     18421.214      0              0              0              0              0             -178.68074    
     24500   4969.7695      427.4084       4542.3611      315.13552     -2071.3883      0.40101743     18421.214      0              0              0              0              0             -167.20069    
     24750   4952.6013      400.06669      4552.5346      294.97601     -2545.8859      0.40101743     18421.214      0              0              0              0              0             -167.46243    
     25000   4956.3161      419.9468       4536.3693      309.63395     -2047.9734      0.40101743     18421.214      0              0              0              0              0             -173.04476    
     25250   4938.0076      393.89227      4544.1153      290.4235      -2205.0658      0.40101743     18421.214      0              0              0              0              0             -174.80089    
     25500   4982.5342      412.84331      4569.6909      304.39643     -3318.1366      0.40101743     18421.214      0              0              0              0              0             -168.98459    
     25750   4911.4564      386.45809      4524.9983      284.94216     -2975.1522      0.40101743     18421.214      0              0              0              0              0             -176.39712    
     26000   4932.668       413.16111      4519.5069      304.63075     -2309.1551      0.40101743     18421.214      0              0              0              0              0             -176.82015    
     26250   4938.0973      415.60279      4522.4945      306.43104     -1181.6006      0.40101743     18421.214      0              0              0              0              0             -181.23911    
     26500   4961.8983      412.02127      4549.8771      303.79033     -2165.0116      0.40101743     18421.214      0              0              0              0              0             -186.9553     
     26750   4937.6398      400.78166      4536.8581      295.50317     -2619.111       0.40101743     18421.214      0              0              0              0              0             -183.28328    
     27000   4940.3574      425.03245      4515.3249      313.38369     -3237.1627      0.40101743     18421.214      0              0              0              0              0             -185.60161    
     27250   4934.4694      410.83506      4523.6343      302.91571     -3322.1357      0.40101743     18421.214      0              0              0              0              0             -189.97513    
     27500   4949.9962      414.11505      4535.8811      305.33411     -2610.4335      0.40101743     18421.214      0              0              0              0              0             -190.15601    
     27750   4948.0965      409.07733      4539.0192      301.61971     -3059.3638      0.40101743     18421.214      0              0              0              0              0             -192.28833    
     28000   5004.5203      445.65991      4558.8603      328.59267     -2779.8462      0.40101743     18421.214      0              0              0              0              0             -189.82604    
     28250   4945.6895      409.77918      4535.9103      302.13719     -4392.883       0.40101743     18421.214      0              0              0              0              0             -194.06074    
     28500   4964.3255      435.3134       4529.0121      320.96401     -2398.7211      0.40101743     18421.214      0              0              0              0              0             -196.70291    
     28750   4938.8119      401.88018      4536.9317      296.31313     -2366.593       0.40101743     18421.214      0              0              0              0              0             -198.37969    
     29000   4989.4425      443.25494      4546.1875      326.81945     -2928.7551      0.40101743     18421.214      0              0              0              0              0             -192.90178    
     29250   4942.7382      373.51652      4569.2217      275.40011     -2076.45        0.40101743     18421.214      0              0              0              0              0             -184.61236    
     29500   4938.2325      389.02497      4549.2075      286.83476     -3742.882       0.40101743     18421.214      0              0              0              0              0             -185.68641    
     29750   4942.1712      416.40742      4525.7638      307.02431     -2525.1348      0.40101743     18421.214      0              0              0              0              0             -173.38787    
     30000   4913.4842      387.49027      4525.9939      285.7032      -2661.4952      0.40101743     18421.214      0              0              0              0              0             -180.10065    
     30250   4883.1298      378.87168      4504.2581      279.34856     -3852.753       0.40101743     18421.214      0              0              0              0              0             -185.32544    
     30500   4940.0194      410.73009      4529.2893      302.83831     -2164.282       0.40101743     18421.214      0              0              0              0              0             -182.24565    
     30750   4913.6172      397.07074      4516.5465      292.76704     -1395.818       0.40101743     18421.214      0              0              0              0              0             -179.74244    
     31000   4970.8459      436.86359      4533.9823      322.10699     -3671.0472      0.40101743     18421.214      0              0              0              0              0             -182.09792    
     31250   4993.2936      412.26337      4581.0302      303.96883     -3835.2676      0.40101743     18421.214      0              0              0              0              0             -185.16332    
     31500   4939.2699      412.51483      4526.7551      304.15423     -1828.9263      0.40101743     18421.214      0              0              0              0              0             -193.75528    
     31750   4949.1298      420.36876      4528.761       309.94507     -1795.7971      0.40101743     18421.214      0              0              0              0              0             -194.77049    
     32000   4946.264       409.26659      4536.9974      301.75925     -1876.2794      0.40101743     18421.214      0              0              0              0              0             -191.34608    
     32250   4935.3203      428.87763      4506.4427      316.21881     -2509.9654      0.40101743     18421.214      0              0              0              0              0             -178.68543    
     32500   4950.5606      421.36279      4529.1978      310.67799     -4293.5434      0.40101743     18421.214      0              0              0              0              0             -163.98263    
     32750   4922.2668      397.13964      4525.1272      292.81784     -3903.9368      0.40101743     18421.214      0              0              0              0              0             -169.76363    
     33000   4954.142       398.81697      4555.3251      294.05457     -2875.2832      0.40101743     18421.214      0              0              0              0              0             -173.31269    
     33250   4936.8092      395.97475      4540.8344      291.95895     -875.70356      0.40101743     18421.214      0              0              0              0              0             -166.04053    
     33500   4974.9151      407.03422      4567.8808      300.11329     -2603.5385      0.40101743     18421.214      0              0              0              0              0             -164.19084    
     33750   4965.4837      416.25788      4549.2258      306.91405     -3359.3412      0.40101743     18421.214      0              0              0              0              0             -171.41483    
     34000   4957.9736      415.87859      4542.095       306.63439     -1201.3799      0.40101743     18421.214      0              0              0              0              0             -173.1829     
     34250   4961.4732      403.67171      4557.8015      297.63405     -2422.8024      0.40101743     18421.214      0              0              0              0              0             -184.47345    
     34500   4939.6623      418.55005      4521.1122      308.6041      -3388.1846      0.40101743     18421.214      0              0              0              0              0             -188.01502    
     34750   4921.6179      386.00525      4535.6127      284.60827     -2733.0246      0.40101743     18421.214      0              0              0              0              0             -184.72882    
     35000   4942.6209      395.02252      4547.5983      291.25686     -3406.5621      0.40101743     18421.214      0              0              0              0              0             -191.56263    
     35250   4935.8667      398.21149      4537.6553      293.60814     -2740.4897      0.40101743     18421.214      0              0              0              0              0             -192.61602    
     35500   4978.5805      430.8522       4547.7283      317.67469     -2389.6779      0.40101743     18421.214      0              0              0              0              0             -192.82277    
     35750   4970.1352      416.66394      4553.4713      307.21344     -1866.9024      0.40101743     18421.214      0              0              0              0              0             -195.31931    
     36000   4935.2724      410.87148      4524.4009      302.94256     -2616.9247      0.40101743     18421.214      0              0              0              0              0             -194.65364    
     36250   4984.6012      429.08867      4555.5126      316.37441     -1408.6973      0.40101743     18421.214      0              0              0              0              0             -198.63788    
     36500   4967.9432      418.57368      4549.3696      308.62153     -2601.8198      0.40101743     18421.214      0              0              0              0              0             -196.19169    
     36750   4964.6593      424.09265      4540.5666      312.69076     -2372.4192      0.40101743     18421.214      0              0              0              0              0             -198.55144    
     37000   4940.923       398.25573      4542.6673      293.64075     -3182.9787      0.40101743     18421.214      0              0              0              0              0             -197.28132    
     37250   4928.9606      406.7897       4522.1709      299.933       -1749.9901      0.40101743     18421.214      0              0              0              0              0             -200.89023    
     37500   4913.4042      388.59733      4524.8068      286.51945     -2987.2837      0.40101743     18421.214      0              0              0              0              0             -196.40318    
     37750   4971.336       429.82943      4541.5066      316.92058     -1939.958       0.40101743     18421.214      0              0              0              0              0             -196.56147    
     38000   4950.5849      412.76705      4537.8178      304.3402      -3045.8318      0.40101743     18421.214      0              0              0              0              0             -194.81362    
     38250   4965.166       433.1846       4531.9814      319.39441     -2812.8239      0.40101743     18421.214      0              0              0              0              0             -190.40313    
     38500   4942.6202      408.05349      4534.5667      300.86481     -2381.8291      0.40101743     18421.214      0              0              0              0              0             -189.44096    
     38750   4945.7241      412.37443      4533.3497      304.05072     -1937.4918      0.40101743     18421.214      0              0              0              0              0             -189.80512    
     39000   4985.6696      435.95333      4549.7163      321.43584     -2264.5268      0.40101743     18421.214      0              0              0              0              0             -196.25569    
     39250   4975.3754      426.71669      4548.6587      314.62551     -3064.8871      0.40101743     18421.214      0              0              0              0              0             -197.0739     
     39500   4938.8149      393.13505      4545.6798      289.86519     -1864.5106      0.40101743     18421.214      0              0              0              0              0             -199.71463    
     39750   4947.0218      393.29905      4553.7227      289.98611     -2340.4817      0.40101743     18421.214      0              0              0              0              0             -194.4283     
     40000   4923.3591      404.95582      4518.4033      298.58085     -3084.8517      0.40101743     18421.214      0              0              0              0              0             -180.88732    
     40250   4941.2829      398.93904      4542.3438      294.14457     -2000.6873      0.40101743     18421.214      0              0              0              0              0             -181.09552    
     40500   4982.7501      429.47979      4553.2703      316.66279     -1419.6307      0.40101743     18421.214      0              0              0              0              0             -184.1576     
     40750   4960.8247      426.50875      4534.316       314.47219     -2946.8442      0.40101743     18421.214      0              0              0              0              0             -185.61315    
     41000   4968.7167      412.92308      4555.7936      304.45524     -2636.4273      0.40101743     18421.214      0              0              0              0              0             -184.57444    
     41250   4921.0708      385.36811      4535.7027      284.13849     -2656.3659      0.40101743     18421.214      0              0              0              0              0             -184.96855    
     41500   4936.6611      390.09218      4546.569       287.62163     -2663.3289      0.40101743     18421.214      0              0              0              0              0             -177.86593    
     41750   4949.6146      404.72283      4544.8917      298.40906     -2637.6177      0.40101743     18421.214      0              0              0              0              0             -184.86935    
     42000   4942.6347      382.05858      4560.5761      281.69832     -3302.2726      0.40101743     18421.214      0              0              0              0              0             -187.61592    
     42250   4951.1048      419.60185      4531.5029      309.37961     -4591.6895      0.40101743     18421.214      0              0              0              0              0             -185.2126     
     42500   4925.1578      421.75124      4503.4066      310.96439     -3070.8807      0.40101743     18421.214      0              0              0              0              0             -179.34279    
     42750   4928.9263      398.37078      4530.5556      293.72559     -2855.8219      0.40101743     18421.214      0              0              0              0              0             -183.3205     
     43000   4952.4146      415.14461      4537.27        306.09322     -2762.6959      0.40101743     18421.214      0              0              0              0              0             -184.61157    
     43250   4996.6434      441.7881       4554.8553      325.73792     -1721.5115      0.40101743     18421.214      0              0              0              0              0             -186.5749     
     43500   4934.76        389.44413      4545.3159      287.14381     -2713.5543      0.40101743     18421.214      0              0              0              0              0             -180.05067    
     43750   4915.8824      386.83186      4529.0506      285.21774     -2699.4765      0.40101743     18421.214      0              0              0              0              0             -179.79566    
     44000   4949.5414      428.54278      4520.9986      315.97192     -2273.9717      0.40101743     18421.214      0              0              0              0              0             -176.60367    
     44250   4982.8317      422.02889      4560.8028      311.16911     -2071.4662      0.40101743     18421.214      0              0              0              0              0             -183.31315    
     44500   4934.7967      416.32871      4518.468       306.96627     -1534.0697      0.40101743     18421.214      0              0              0              0              0             -184.73321    
     44750   4958.6105      415.40569      4543.2048      306.28571     -1925.3191      0.40101743     18421.214      0              0              0              0              0             -178.96755    
     45000   4958.1113      398.78111      4559.3302      294.02813     -3283.7748      0.40101743     18421.214      0              0              0              0              0             -176.9443     
     45250   4935.5705      407.72553      4527.8449      300.62301     -2935.7448      0.40101743     18421.214      0              0              0              0              0             -175.23985    
     45500   4961.3823      413.24515      4548.1371      304.69271     -2277.7746      0.40101743     18421.214      0              0              0              0              0             -178.52705    
     45750   4935.2189      400.79233      4534.4266      295.51104     -2246.9734      0.40101743     18421.214      0              0              0              0              0             -177.79462    
     46000   4918.6178      395.13669      4523.4812      291.34103     -1861.7748      0.40101743     18421.214      0              0              0              0              0             -174.31844    
     46250   4948.2704      397.0057       4551.2647      292.71909     -3266.8604      0.40101743     18421.214      0              0              0              0              0             -183.20171    
     46500   4944.1754      416.02484      4528.1505      306.74223     -3471.4005      0.40101743     18421.214      0              0              0              0              0             -187.1176     
     46750   4945.5992      399.88004      4545.7192      294.83839     -2465.0329      0.40101743     18421.214      0              0              0              0              0             -190.57324    
     47000   4935.5162      404.65301      4530.8632      298.35758     -2595.1679      0.40101743     18421.214      0              0              0              0              0             -183.87624    
     47250   4932.169       397.54926      4534.6197      293.11986     -3155.0578      0.40101743     18421.214      0              0              0              0              0             -181.86697    
     47500   4944.73        415.76421      4528.9658      306.55006     -2696.0039      0.40101743     18421.214      0              0              0              0              0             -184.60616    
     47750   4920.6798      386.71556      4533.9643      285.13199     -1662.9962      0.40101743     18421.214      0              0              0              0              0             -172.87146    
     48000   4927.0189      409.12098      4517.898       301.65189     -2843.647       0.40101743     18421.214      0              0              0              0              0             -176.66553    
     48250   4937.7255      407.00262      4530.7229      300.08998     -2731.9862      0.40101743     18421.214      0              0              0              0              0             -179.93129    
     48500   4924.2017      411.38318      4512.8185      303.31985     -2971.5147      0.40101743     18421.214      0              0              0              0              0             -185.41147    
     48750   4900.7521      392.20302      4508.549       289.17799     -2277.3083      0.40101743     18421.214      0              0              0              0              0             -184.79571    
     49000   4937.2281      394.55243      4542.6756      290.91025     -3116.9941      0.40101743     18421.214      0              0              0              0              0             -192.10906    
     49250   4955.0183      418.14967      4536.8686      308.3089      -3033.5471      0.40101743     18421.214      0              0              0              0              0             -195.03943    
     49500   4909.4037      408.0198       4501.3839      300.83997     -3014.8668      0.40101743     18421.214      0              0              0              0              0             -194.4161     
     49750   4969.559       431.85073      4537.7083      318.41093     -2854.7709      0.40101743     18421.214      0              0              0              0              0             -196.29621    
     50000   4917.4905      425.68794      4491.8025      313.867       -1344.1973      0.40101743     18421.214      0              0              0              0              0             -193.42323    
     50250   4956.456       423.2647       4533.1913      312.0803      -2774.5363      0.40101743     18421.214      0              0              0              0              0             -193.85829    
     50500   4932.6558      408.35822      4524.2976      301.0895      -3138.2005      0.40101743     18421.214      0              0              0              0              0             -201.02486    
     50750   4980.4555      417.27707      4563.1784      307.66551     -2774.6879      0.40101743     18421.214      0              0              0              0              0             -200.0802     
     51000   4933.0886      390.18288      4542.9057      287.68851     -1854.6082      0.40101743     18421.214      0              0              0              0              0             -198.57828    
     51250   4920.2747      403.50886      4516.7658      297.51398     -3092.6229      0.40101743     18421.214      0              0              0              0              0             -194.41709    
     51500   4910.0805      387.13481      4522.9457      285.44111     -2431.1092      0.40101743     18421.214      0              0              0              0              0             -187.02031    
     51750   4963.4163      408.68196      4554.7343      301.32819     -2647.4593      0.40101743     18421.214      0              0              0              0              0             -182.5135     
     52000   4922.5974      397.76901      4524.8283      293.28189     -2934.8053      0.40101743     18421.214      0              0              0              0              0             -190.66143    
     52250   4941.2771      416.55322      4524.7239      307.13181     -1802.6744      0.40101743     18421.214      0              0              0              0              0             -190.71063    
     52500   4973.0176      416.60129      4556.4163      307.16725     -3377.9442      0.40101743     18421.214      0              0              0              0              0             -183.54167    
     52750   4939.2278      391.74673      4547.4811      288.84156     -2230.7479      0.40101743     18421.214      0              0              0              0              0             -185.94253    
     53000   4917.4485      391.36462      4526.0839      288.55982     -3220.58        0.40101743     18421.214      0              0              0              0              0             -180.66726    
     53250   4944.3156      408.73753      4535.5781      301.36917     -2520.4791      0.40101743     18421.214      0              0              0              0              0             -179.29494    
     53500   4959.5726      407.69777      4551.8748      300.60253     -2386.6248      0.40101743     18421.214      0              0              0              0              0             -179.93748    
     53750   4936.9486      412.75549      4524.1932      304.33167     -2929.1705      0.40101743     18421.214      0              0              0              0              0             -182.39966    
     54000   4955.4791      428.34526      4527.1338      315.82628     -2381.1284      0.40101743     18421.214      0              0              0              0              0             -181.05522    
     54250   4976.2285      428.45131      4547.7772      315.90448     -2915.8059      0.40101743     18421.214      0              0              0              0              0             -182.96525    
     54500   4937.2088      412.93383      4524.275       304.46317     -2115.7999      0.40101743     18421.214      0              0              0              0              0             -186.18629    
     54750   4981.5943      446.49641      4535.0979      329.20944     -2424.7938      0.40101743     18421.214      0              0              0              0              0             -183.56438    
     55000   4951.4936      403.60743      4547.8862      297.58666     -1741.1532      0.40101743     18421.214      0              0              0              0              0             -179.51806    
     55250   4954.2724      423.64658      4530.6258      312.36186     -2468.3203      0.40101743     18421.214      0              0              0              0              0             -177.75802    
     55500   4969.081       430.3183       4538.7627      317.28104     -3272.8041      0.40101743     18421.214      0              0              0              0              0             -180.15672    
     55750   4929.1584      396.60089      4532.5575      292.42061     -2329.0956      0.40101743     18421.214      0              0              0              0              0             -186.94184    
     56000   4961.3597      422.48822      4538.8715      311.50779     -1404.2757      0.40101743     18421.214      0              0              0              0              0             -186.62482    
     56250   4950.7242      416.24569      4534.4785      306.90506     -3335.7974      0.40101743     18421.214      0              0              0              0              0             -186.84958    
     56500   4961.244       410.47214      4550.7719      302.64812     -1982.3141      0.40101743     18421.214      0              0              0              0              0             -180.20982    
     56750   4927.1608      389.1327       4538.0281      286.91419     -1868.1223      0.40101743     18421.214      0              0              0              0              0             -172.26325    
     57000   4948.4902      412.61927      4535.8709      304.23124     -3036.6267      0.40101743     18421.214      0              0              0              0              0             -167.48985    
     57250   4939.2082      414.77382      4524.4344      305.81983     -2351.2341      0.40101743     18421.214      0              0              0              0              0             -169.45396    
     57500   4954.3737      423.44286      4530.9308      312.21166     -1324.5909      0.40101743     18421.214      0              0              0              0              0             -171.90884    
     57750   4996.4222      435.73661      4560.6856      321.27605     -1681.4111      0.40101743     18421.214      0              0              0              0              0             -159.28442    
     58000   4965.2654      419.55768      4545.7078      309.34705     -1691.6948      0.40101743     18421.214      0              0              0              0              0             -145.55862    
     58250   4931.5767      398.55088      4533.0258      293.85838     -3093.5175      0.40101743     18421.214      0              0              0              0              0             -145.9607     
     58500   4940.1721      409.474        4530.6981      301.91218     -2825.479       0.40101743     18421.214      0              0              0              0              0             -166.26214    
     58750   4947.3265      402.78726      4544.5393      296.98193     -1721.4496      0.40101743     18421.214      0              0              0              0              0             -175.95438    
     59000   4941.274       426.702        4514.572       314.61468     -2630.8341      0.40101743     18421.214      0              0              0              0              0             -182.07816    
     59250   4915.4364      386.71176      4528.7246      285.12919     -2514.0986      0.40101743     18421.214      0              0              0              0              0             -185.76746    
     59500   4966.3739      435.68645      4530.6875      321.23907     -2571.1641      0.40101743     18421.214      0              0              0              0              0             -183.82666    
     59750   4925.1802      399.86785      4525.3124      294.8294      -2679.6154      0.40101743     18421.214      0              0              0              0              0             -183.15778    
     60000   4968.849       439.53934      4529.3097      324.07987     -2665.3709      0.40101743     18421.214      0              0              0              0              0             -185.96898    
     60250   4965.0422      406.65926      4558.383       299.83683     -1265.3787      0.40101743     18421.214      0              0              0              0              0             -187.29872    
     60500   4970.5313      430.54759      4539.9837      317.4501      -2803.0019      0.40101743     18421.214      0              0              0              0              0             -185.48976    
     60750   4902.8321      390.64148      4512.1906      288.02664     -2688.2939      0.40101743     18421.214      0              0              0              0              0             -176.12119    
     61000   4936.6778      388.74697      4547.9308      286.62979     -2404.6692      0.40101743     18421.214      0              0              0              0              0             -181.52614    
     61250   4917.8591      403.84288      4514.0162      297.76026     -2231.5662      0.40101743     18421.214      0              0              0              0              0             -182.39488    
     61500   4948.0227      419.02183      4529.0009      308.95196     -2959.3481      0.40101743     18421.214      0              0              0              0              0             -185.29966    
     61750   4933.8337      416.89831      4516.9354      307.38625     -3270.2611      0.40101743     18421.214      0              0              0              0              0             -187.1119     
     62000   4959.9382      417.54006      4542.3982      307.85942     -1578.576       0.40101743     18421.214      0              0              0              0              0             -184.20855    
     62250   4957.4199      424.95953      4532.4603      313.32992     -2544.5045      0.40101743     18421.214      0              0              0              0              0             -180.3306     
[...]
    777750   4923.0405      395.96427      4527.0763      291.95122     -2074.6232      0.40101743     18421.214      0              0              0              0              0             -191.91492    
    778000   4937.733       416.5478       4521.1852      307.12782     -2619.2187      0.40101743     18421.214      0              0              0              0              0             -188.76367    
    778250   4930.4821      405.54921      4524.9329      299.01836     -2862.8242      0.40101743     18421.214      0              0              0              0              0             -191.14359    
    778500   4897.7411      375.36667      4522.3744      276.76426     -2631.1034      0.40101743     18421.214      0              0              0              0              0             -189.08263    
    778750   4974.54        439.66447      4534.8756      324.17213     -3418.1963      0.40101743     18421.214      0              0              0              0              0             -191.36946    
    779000   4951.8019      405.6842       4546.1177      299.1179      -3432.8172      0.40101743     18421.214      0              0              0              0              0             -180.35245    
    779250   4943.6702      406.85756      4536.8126      299.98303     -3767.5729      0.40101743     18421.214      0              0              0              0              0             -176.2846     
    779500   4929.6247      380.56975      4549.0549      280.60058     -2445.1272      0.40101743     18421.214      0              0              0              0              0             -181.0403     
    779750   4957.6081      421.91314      4535.695       311.08377     -2263.0864      0.40101743     18421.214      0              0              0              0              0             -191.5982     
    780000   4962.6603      426.94778      4535.7126      314.7959      -1410.9001      0.40101743     18421.214      0              0              0              0              0             -193.85373    
    780250   4959.9553      427.62623      4532.3291      315.29613     -2911.2916      0.40101743     18421.214      0              0              0              0              0             -190.09233    
    780500   4955.0342      412.68537      4542.3488      304.27998     -3208.2879      0.40101743     18421.214      0              0              0              0              0             -183.98883    
    780750   4953.7906      411.31298      4542.4776      303.26809     -4163.3368      0.40101743     18421.214      0              0              0              0              0             -174.23823    
    781000   4927.572       408.44411      4519.1278      301.15282     -3342.8123      0.40101743     18421.214      0              0              0              0              0             -173.95196    
    781250   4913.7768      417.52232      4496.2545      307.84635     -1370.6886      0.40101743     18421.214      0              0              0              0              0             -170.32048    
    781500   4973.5127      414.99966      4558.513       305.98634     -3171.2888      0.40101743     18421.214      0              0              0              0              0             -162.82245    
    781750   4937.3135      383.15974      4554.1538      282.51022     -3648.1142      0.40101743     18421.214      0              0              0              0              0             -162.36966    
    782000   4939.7135      413.14126      4526.5723      304.61611     -2783.9471      0.40101743     18421.214      0              0              0              0              0             -149.91465    
    782250   4963.4096      422.11248      4541.2971      311.23075     -2336.7259      0.40101743     18421.214      0              0              0              0              0             -139.12196    
    782500   4903.024       389.96631      4513.0577      287.52883     -2481.2924      0.40101743     18421.214      0              0              0              0              0             -146.65049    
    782750   4930.9757      409.98021      4520.9955      302.28541     -2483.9424      0.40101743     18421.214      0              0              0              0              0             -154.22781    
    783000   4941.0133      393.96318      4547.0501      290.47579     -3440.6774      0.40101743     18421.214      0              0              0              0              0             -165.58726    
    783250   4940.182       394.81848      4545.3635      291.10641     -2419.9088      0.40101743     18421.214      0              0              0              0              0             -162.97605    
    783500   4933.5045      394.74145      4538.763       291.04962     -2880.2224      0.40101743     18421.214      0              0              0              0              0             -173.65063    
    783750   4966.9093      431.74594      4535.1634      318.33366     -684.52101      0.40101743     18421.214      0              0              0              0              0             -178.79867    
    784000   4947.9047      437.21284      4510.6918      322.3645      -2113.0346      0.40101743     18421.214      0              0              0              0              0             -179.14766    
    784250   4971.5375      428.79559      4542.7419      316.15832     -3245.627       0.40101743     18421.214      0              0              0              0              0             -182.22515    
    784500   4926.232       416.56928      4509.6627      307.14365     -3055.1543      0.40101743     18421.214      0              0              0              0              0             -179.80537    
    784750   4919.7904      400.9817       4518.8087      295.65066     -2934.8429      0.40101743     18421.214      0              0              0              0              0             -178.20397    
    785000   4969.8297      432.40885      4537.4208      318.82244     -3090.538       0.40101743     18421.214      0              0              0              0              0             -183.45716    
    785250   4945.9162      429.1556       4516.7606      316.42376     -2933.57        0.40101743     18421.214      0              0              0              0              0             -180.7235     
    785500   4979.82        412.31537      4567.5046      304.00717     -1371.5658      0.40101743     18421.214      0              0              0              0              0             -182.87851    
    785750   4936.674       400.80069      4535.8733      295.5172      -2250.4349      0.40101743     18421.214      0              0              0              0              0             -185.47641    
    786000   4912.523       402.08163      4510.4413      296.46166     -2737.7923      0.40101743     18421.214      0              0              0              0              0             -190.51713    
    786250   4941.5106      416.23924      4525.2714      306.90031     -2765.1653      0.40101743     18421.214      0              0              0              0              0             -189.15514    
    786500   4925.3418      383.38507      4541.9567      282.67636     -2207.6259      0.40101743     18421.214      0              0              0              0              0             -188.27987    
    786750   4949.2142      414.27139      4534.9428      305.44938     -2355.7966      0.40101743     18421.214      0              0              0              0              0             -186.5358     
    787000   4950.4933      414.24537      4536.2479      305.43019     -3817.0064      0.40101743     18421.214      0              0              0              0              0             -190.79654    
    787250   4915.4096      382.27675      4533.1329      281.85918     -3543.6065      0.40101743     18421.214      0              0              0              0              0             -187.73143    
    787500   4907.6499      400.45387      4507.196       295.26148     -2349.5516      0.40101743     18421.214      0              0              0              0              0             -190.09804    
    787750   4940.1729      401.98817      4538.1847      296.39275     -2315.0944      0.40101743     18421.214      0              0              0              0              0             -191.63043    
    788000   4934.905       417.61929      4517.2857      307.91784     -2014.2791      0.40101743     18421.214      0              0              0              0              0             -191.89967    
    788250   4932.7715      429.53649      4503.235       316.7046      -2345.5629      0.40101743     18421.214      0              0              0              0              0             -188.14366    
    788500   4959.5024      420.80146      4538.7009      310.26411     -1938.0988      0.40101743     18421.214      0              0              0              0              0             -195.12374    
    788750   4966.3601      436.94402      4529.416       322.16629     -1692.7699      0.40101743     18421.214      0              0              0              0              0             -190.27499    
    789000   4959.8475      414.23007      4545.6175      305.41891     -3060.1479      0.40101743     18421.214      0              0              0              0              0             -184.41086    
    789250   4921.0869      407.51399      4513.5729      300.46703     -3060.7439      0.40101743     18421.214      0              0              0              0              0             -182.60058    
    789500   4953.2085      424.53223      4528.6763      313.01487     -2647.9501      0.40101743     18421.214      0              0              0              0              0             -181.1999     
    789750   4911.6448      412.15979      4499.485       303.89246     -2652.9642      0.40101743     18421.214      0              0              0              0              0             -179.47646    
    790000   4902.9056      383.57482      4519.3308      282.81627     -2982.8978      0.40101743     18421.214      0              0              0              0              0             -183.19128    
    790250   4974.1939      420.25896      4553.9349      309.86412     -2952.7063      0.40101743     18421.214      0              0              0              0              0             -188.32472    
    790500   4941.3723      378.94985      4562.4225      279.4062      -3817.7229      0.40101743     18421.214      0              0              0              0              0             -181.97923    
    790750   4933.0333      403.9912       4529.0421      297.86962     -1966.6894      0.40101743     18421.214      0              0              0              0              0             -187.28496    
    791000   4932.1777      406.59997      4525.5777      299.79311     -1391.2557      0.40101743     18421.214      0              0              0              0              0             -178.38859    
    791250   4959.2558      427.28844      4531.9674      315.04707     -1635.4377      0.40101743     18421.214      0              0              0              0              0             -187.35543    
    791500   4966.137       426.40867      4539.7284      314.3984      -2263.5861      0.40101743     18421.214      0              0              0              0              0             -186.4413     
    791750   4935.132       413.27004      4521.862       304.71107     -3140.22        0.40101743     18421.214      0              0              0              0              0             -176.96304    
    792000   4951.8514      401.05521      4550.7962      295.70486     -2339.7735      0.40101743     18421.214      0              0              0              0              0             -168.17493    
    792250   4922.0413      399.71819      4522.3231      294.71905     -2105.2647      0.40101743     18421.214      0              0              0              0              0             -180.57907    
    792500   4931.8914      392.28643      4539.605       289.23949     -3109.9314      0.40101743     18421.214      0              0              0              0              0             -175.95584    
    792750   4935.6228      403.36516      4532.2576      297.40802     -2288.283       0.40101743     18421.214      0              0              0              0              0             -180.29621    
    793000   4940.1761      400.63121      4539.5448      295.39224     -3322.5204      0.40101743     18421.214      0              0              0              0              0             -185.86782    
    793250   4917.7219      405.8831       4511.8388      299.26455     -2179.0903      0.40101743     18421.214      0              0              0              0              0             -183.11945    
    793500   4949.354       413.56123      4535.7927      304.92577     -2430.8817      0.40101743     18421.214      0              0              0              0              0             -177.94184    
    793750   4910.9474      398.28802      4512.6593      293.66457     -2444.0557      0.40101743     18421.214      0              0              0              0              0             -188.07211    
    794000   4920.3089      385.86375      4534.4452      284.50394     -2485.5313      0.40101743     18421.214      0              0              0              0              0             -188.46063    
    794250   4879.6368      365.94397      4513.6928      269.81674     -1812.2853      0.40101743     18421.214      0              0              0              0              0             -193.57052    
    794500   4971.1404      432.378        4538.7624      318.79969     -2452.714       0.40101743     18421.214      0              0              0              0              0             -195.67161    
    794750   4908.1118      393.22442      4514.8873      289.93109     -3317.0663      0.40101743     18421.214      0              0              0              0              0             -190.3788     
    795000   4956.4774      427.25323      4529.2242      315.02111     -2480.7526      0.40101743     18421.214      0              0              0              0              0             -188.35777    
    795250   4927.8649      389.17152      4538.6934      286.94282     -2219.2331      0.40101743     18421.214      0              0              0              0              0             -187.56706    
    795500   4949.333       417.14428      4532.1887      307.56761     -2041.3598      0.40101743     18421.214      0              0              0              0              0             -187.19649    
    795750   4945.3256      406.14461      4539.181       299.45736     -3264.0484      0.40101743     18421.214      0              0              0              0              0             -186.43537    
    796000   4949.6237      424.4878       4525.1359      312.98211     -2046.9597      0.40101743     18421.214      0              0              0              0              0             -188.83544    
    796250   4973.3464      437.43146      4535.9149      322.52569     -2429.1301      0.40101743     18421.214      0              0              0              0              0             -191.68364    
    796500   4907.401       388.80226      4518.5987      286.67055     -3348.0166      0.40101743     18421.214      0              0              0              0              0             -188.97484    
    796750   4938.3451      420.05276      4518.2924      309.71208     -1706.1257      0.40101743     18421.214      0              0              0              0              0             -184.62464    
    797000   4937.3913      412.61032      4524.781       304.22464     -2735.0946      0.40101743     18421.214      0              0              0              0              0             -190.96659    
    797250   4976.7257      437.20502      4539.5207      322.35873     -2577.2601      0.40101743     18421.214      0              0              0              0              0             -185.3354     
    797500   4934.0935      416.22919      4517.8643      306.8929      -3920.2821      0.40101743     18421.214      0              0              0              0              0             -176.90182    
    797750   4967.0081      412.30921      4554.6989      304.00263     -1451.4831      0.40101743     18421.214      0              0              0              0              0             -167.28605    
    798000   4933.4654      406.89795      4526.5675      300.01281     -1647.3612      0.40101743     18421.214      0              0              0              0              0             -168.74145    
    798250   4936.4921      408.95692      4527.5351      301.53092     -1974.5027      0.40101743     18421.214      0              0              0              0              0             -175.36256    
    798500   4999.0274      436.86133      4562.1661      322.10533     -2864.4509      0.40101743     18421.214      0              0              0              0              0             -184.65272    
    798750   4954.106       440.88088      4513.2251      325.06901     -2682.2032      0.40101743     18421.214      0              0              0              0              0             -183.22439    
    799000   4931.0093      412.21548      4518.7938      303.93352     -2405.4179      0.40101743     18421.214      0              0              0              0              0             -175.81111    
    799250   4938.3689      402.96575      4535.4032      297.11353     -1965.1958      0.40101743     18421.214      0              0              0              0              0             -182.53442    
    799500   4966.3257      421.52379      4544.8019      310.79669     -3404.5787      0.40101743     18421.214      0              0              0              0              0             -185.44434    
    799750   4933.0724      406.67475      4526.3976      299.84824     -2561.5102      0.40101743     18421.214      0              0              0              0              0             -178.34182    
    800000   4933.6276      400.59377      4533.0338      295.36463     -2987.4467      0.40101743     18421.214      0              0              0              0              0             -174.53947    
Loop time of 80.9592 on 4 procs for 800000 steps with 456 atoms

Performance: 853.763 ns/day, 0.028 hours/ns, 9881.516 timesteps/s
99.5% CPU use with 4 MPI tasks x no OpenMP threads

MPI task timing breakdown:
Section |  min time  |  avg time  |  max time  |%varavg| %total
---------------------------------------------------------------
Pair    | 35.014     | 41.88      | 48.552     |  77.5 | 51.73
Bond    | 7.2249     | 7.4983     | 7.7062     |   6.3 |  9.26
Neigh   | 6.0667     | 6.0715     | 6.076      |   0.2 |  7.50
Comm    | 13.603     | 20.038     | 26.839     | 108.8 | 24.75
Output  | 0.057758   | 0.09129    | 0.12838    |   9.0 |  0.11
Modify  | 3.9932     | 4.0095     | 4.0341     |   0.8 |  4.95
Other   |            | 1.37       |            |       |  1.69

Nlocal:            114 ave         117 max         109 min
Histogram: 1 0 0 0 0 0 1 0 1 1
Nghost:           2245 ave        2271 max        2212 min
Histogram: 1 0 1 0 0 0 0 0 0 2
Neighs:        17703.2 ave       20255 max       14719 min
Histogram: 1 1 0 0 0 0 0 0 0 2

Total # of neighbors = 70813
Ave neighs/atom = 155.29167
Ave special neighs/atom = 6.3157895
Neighbor list builds = 17163
Dangerous builds = 0

unfix			f1
unfix			f2

Total wall time: 0:02:09
