Created by Ryther's code on 2023-10-20 16:29:37.351278

    640 atoms
    800 bonds
    1520 angles
    1120 dihedrals
    240 impropers

    4 atom types
    4 bond types
    6 angle types
    2 dihedral types
    1 improper types

0.00000000 38.82630504 xlo xhi
0.00000000 38.8261416 ylo yhi
0.00000000 34.00909701 zlo zhi
-0.02267246 0.00759403 0.00767542 xy xz yz 

Masses 

    1    12.0107
    2     55.845
    3    1.00794
    4     32.065

Pair Coeffs

    1       0.10500      3.43085 # C_R C_R
    2       0.01300      2.59430 # Fe3+2 Fe3+2
    3       0.04400      2.57113 # H_ H_
    4       0.27400      3.59478 # S_3+6 S_3+6

Bond Coeffs

    1     147.17269      2.45639 # Fe3+2 S_3+6 bond order=0.5
    2     320.77888      1.74901 # C_R S_3+6 bond order=1.0
    3     462.65505      1.37926 # C_R C_R bond order=1.5
    4     357.44038      1.08142 # C_R H_ bond order=1.0

Angle Coeffs

    1  fourier                100.25294      0.34375      0.37500      0.28125 # S_3+6 Fe3+2 S_3+6
    2  fourier                 81.01940      0.34375      0.37500      0.28125 # Fe3+2 S_3+6 Fe3+2
    3  fourier                 96.38555      0.34375      0.37500      0.28125 # C_R S_3+6 Fe3+2
    4  cosine/periodic        105.95085           -1            3 # C_R C_R S_3+6
    5  cosine/periodic        111.29751           -1            3 # C_R C_R C_R
    6  cosine/periodic         57.28902           -1            3 # C_R C_R H_

Dihedral Coeffs

    1       1.22984           -1            2 # X C_R S_3+6 X bond order=1.0
    2       3.36856           -1            2 # X C_R C_R X bond order=1.5

Improper Coeffs

    1       2.00000      1.00000     -1.00000      0.00000            1 # C_R X X X O_2 present=False

Atoms

    1 1     2      0.24910     32.37097     21.90618     28.22328
    2 1     4     -0.12420     34.00838     20.68859     29.27657
    3 1     4     -0.69550     33.63349     23.20954     26.85698
    4 1     2      0.24910     30.10632     20.86066     29.41850
    5 1     4     -0.12420     31.04737     19.32157     30.83933
    6 1     4     -0.69550     27.90251     20.56372     29.88166
    7 1     2      0.24910     32.43406     21.15132     30.88286
    8 1     4     -0.69550     33.02474     22.12086     32.85015
    9 1     2      0.24910     32.27706     19.22710     28.90219
   10 1     4     -0.69550     32.62745     17.25138     27.83782
   11 1     4     -0.12420     31.16703     22.81858     29.94061
   12 1     4     -0.12420     30.96313     20.31940     27.36811
   13 1     2      0.24910     36.50351     25.22253      5.12453
   14 1     4     -0.12420     34.82848     26.48656      6.05705
   15 1     4     -0.69550     35.53440     24.63119      3.15714
   16 1     2      0.24910     38.42766     25.38061      7.10517
   17 1     4     -0.12420     37.34430     26.69324      8.64673
   18 1     4     -0.69550      1.57741     25.03122      8.16941
   19 1     2      0.24910     35.74865     25.28519      7.78412
   20 1     4     -0.69550     34.44614     24.02183      9.15032
   21 1     2      0.24910     36.79288     27.55043      6.58888
   22 1     4     -0.69550     37.08870     29.75429      6.12562
   23 1     4     -0.12420     36.97313     23.65706      6.72451
   24 1     4     -0.12420     38.32938     26.59916      5.17213
   25 1     2      0.24910     17.08396     29.87464      5.12785
   26 1     4     -0.12420     15.41034     28.60871      6.06032
   27 1     4     -0.69550     16.11418     30.46502      3.16050
   28 1     2      0.24910     19.00836     29.71847      7.10841
   29 1     4     -0.12420     17.92648     28.40453      8.64989
   30 1     4     -0.69550     20.98412     30.06982      8.17256
   31 1     2      0.24910     17.37572     27.54703      6.59219
   32 1     4     -0.69550     17.67371     25.34346      6.12890
   33 1     2      0.24910     16.32929     29.81122      7.78748
   34 1     4     -0.69550     15.02558     31.07328      9.15373
   35 1     4     -0.12420     18.91121     28.49983      5.17536
   36 1     4     -0.12420     17.55210     31.44057      6.72781
   37 1     2      0.24910     13.00987     33.95830     30.88605
   38 1     4     -0.12420     11.74466     32.28363     29.95449
   39 1     4     -0.69550     13.60113     32.98962     32.85367
   40 1     2      0.24910     12.85231     35.88182     28.90475
   41 1     4     -0.12420     11.53865     34.79862     27.36395
   42 1     4     -0.69550     13.20241     37.85733     27.83974
   43 1     2      0.24910     10.68183     34.24823     29.42203
   44 1     4     -0.69550      8.47819     34.54523     29.88561
   45 1     2      0.24910     12.94635     33.20252     28.22673
   46 1     4     -0.69550     14.20886     31.89894     26.86076
   47 1     4     -0.12420     11.63408     35.78479     30.83806
   48 1     4     -0.12420     14.57525     34.42663     29.28561
   49 1     2      0.24910     23.70643      5.81389      5.12236
   50 1     4     -0.12420     25.38040      7.08006      6.05388
   51 1     4     -0.69550     24.67544      5.22310      3.15477
   52 1     2      0.24910     21.78282      5.97046      7.10365
   53 1     4     -0.12420     22.86529      7.28477      8.64441
   54 1     4     -0.69550     19.80750      5.61932      8.16867
   55 1     2      0.24910     23.41522      8.14183      6.58630
   56 1     4     -0.69550     23.11701     10.34528      6.12265
   57 1     2      0.24910     24.46217      5.87792      7.78168
   58 1     4     -0.69550     25.76645      4.61618      9.14769
   59 1     4     -0.12420     21.87918      7.18868      5.17030
   60 1     4     -0.12420     23.23896      4.24831      6.72286
   61 1     2      0.24910     27.85542      2.49617     28.22089
   62 1     4     -0.12420     26.21818      1.27829     29.27413
   63 1     4     -0.69550     26.59273      3.79920     26.85444
   64 1     2      0.24910     30.12021      1.45109     29.41624
   65 1     4     -0.12420     29.15671     38.73800     30.83705
   66 1     4     -0.69550     32.32406      1.15450     29.87943
   67 1     2      0.24910     27.92701     38.64333     28.90013
   68 1     4     -0.69550     27.57689     36.66743     27.83600
   69 1     2      0.24910     27.79243      1.74163     30.88056
   70 1     4     -0.69550     27.20163      2.71133     32.84774
   71 1     4     -0.12420     29.26347      0.90947     27.36591
   72 1     4     -0.12420     29.05924      3.40894     29.93811
   73 1     2      0.24910      4.28837     10.46460      5.12755
   74 1     4     -0.12420      5.96359      9.20049      6.05961
   75 1     4     -0.69550      5.25675     11.05544      3.15966
   76 1     2      0.24910      2.36501     10.30718      7.10902
   77 1     4     -0.12420      3.44881      8.99466      8.65037
   78 1     4     -0.69550      0.38945     10.65706      8.17402
   79 1     2      0.24910      5.04432     10.40231      7.78685
   80 1     4     -0.69550      6.34760     11.66572      9.15227
   81 1     2      0.24910      3.99924      8.13702      6.59245
   82 1     4     -0.69550      3.70290      5.93311      6.12971
   83 1     4     -0.12420      3.81965     12.03043      6.72744
   84 1     4     -0.12420      2.46230      9.08827      5.17616
   85 1     2      0.24910      8.36900     14.54770     30.88259
   86 1     4     -0.12420      9.63402     12.87320     29.95048
   87 1     4     -0.69550      7.77878     13.57896     32.85050
   88 1     2      0.24910      8.52527     16.47117     28.90114
   89 1     4     -0.12420      9.83835     15.38812     27.35973
   90 1     4     -0.69550      8.17424     18.44654     27.83618
   91 1     2      0.24910      8.43163     13.79181     28.22329
   92 1     4     -0.69550      7.16890     12.48784     26.85789
   93 1     2      0.24910     10.69637     14.83815     29.41762
   94 1     4     -0.69550     12.90012     15.13573     29.88029
   95 1     4     -0.12420      6.80285     15.01555     29.28276
   96 1     4     -0.12420      9.74431     16.37454     30.83396
   97 1     2      0.24910      1.31348     38.59656      1.97846
   98 1     4     -0.12420      1.45015      0.18988     33.73097
   99 1     4     -0.69550      1.86397      1.82033      2.80231
  100 1     2      0.24910      0.62370     35.91803      1.97839
  101 1     4     -0.12420      0.52559     35.51385     33.73088
  102 1     4     -0.69550      0.09572     33.86812      2.80214
  103 1     2      0.24910      2.30804     36.91241      0.02355
  104 1     4     -0.69550      4.36563     36.39218     33.20925
  105 1     2      0.24910     38.45582     37.60218      0.02330
  106 1     4     -0.69550     36.41358     38.13776     33.20860
  107 1     4     -0.12420      2.70800     36.80935      2.28239
  108 1     4     -0.12420     38.05542     37.70524      2.28206
  109 1     2      0.24910     21.73280     18.19013      0.01971
  110 1     4     -0.12420     22.14470     18.29640      2.27628
  111 1     4     -0.69550     23.78993     18.72698     33.20488
  112 1     2      0.24910     19.05469     17.49876      0.01987
  113 1     4     -0.12420     18.64308     17.39244      2.27649
  114 1     4     -0.69550     17.01261     16.97738     33.20529
  115 1     2      0.24910     20.04822     19.18336      1.97491
  116 1     4     -0.69550     19.51917     21.23290      2.79870
  117 1     2      0.24910     20.73959     16.50525      1.97466
  118 1     4     -0.69550     21.26877     14.45559      2.79807
  119 1     4     -0.12420     19.95234     19.59132     33.72525
  120 1     4     -0.12420     20.85029     16.11297     33.72492
  121 1     2      0.24910     35.75650     10.40254     24.79145
  122 1     4     -0.12420     36.97364     12.04030     23.73816
  123 1     4     -0.69550     34.45274     11.66469     26.15769
  124 1     2      0.24910     36.80281      8.13818     23.59637
  125 1     4     -0.12420     38.34167      9.07965     22.17560
  126 1     4     -0.69550     37.10054      5.93444     23.13339
  127 1     2      0.24910     38.43558     10.30957     24.11242
  128 1     4     -0.69550      1.58492     10.66077     25.17667
  129 1     2      0.24910     36.51121     10.46568     22.13183
  130 1     4     -0.69550     35.54136     11.05583     20.16453
  131 1     4     -0.12420     37.34384      8.99536     25.64666
  132 1     4     -0.12420     34.84447      9.19812     23.07426
  133 1     2      0.24910     32.36686     13.78515     11.22131
  134 1     4     -0.12420     34.00417     15.00361     12.27377
  135 1     4     -0.69550     33.62945     12.48149      9.85537
  136 1     2      0.24910     30.10217     14.83072     12.41641
  137 1     4     -0.12420     31.04309     16.37069     13.83635
  138 1     4     -0.69550     27.89836     15.12746     12.87970
  139 1     2      0.24910     32.27257     16.46446     11.89924
  140 1     4     -0.69550     32.62249     18.43984     10.83410
  141 1     2      0.24910     32.43012     14.54100     13.88061
  142 1     4     -0.69550     33.02119     13.57230     15.84819
  143 1     4     -0.12420     30.95865     15.37136     10.36572
  144 1     4     -0.12420     31.16327     12.87318     12.93913
  145 1     2      0.24910     21.76927     29.72431     24.11276
  146 1     4     -0.12420     22.85302     28.41148     25.65388
  147 1     4     -0.69550     19.79373     30.07411     25.17782
  148 1     2      0.24910     23.69258     29.88188     22.13125
  149 1     4     -0.12420     25.36774     28.61749     23.06307
  150 1     4     -0.69550     24.66091     30.47284     20.16337
  151 1     2      0.24910     23.40352     27.55420     23.59602
  152 1     4     -0.69550     23.10719     25.35032     23.13314
  153 1     2      0.24910     24.44860     29.81943     24.79052
  154 1     4     -0.69550     25.75189     31.08277     26.15600
  155 1     4     -0.12420     21.86653     28.50552     22.17982
  156 1     4     -0.12420     23.22388     31.44761     23.73125
  157 1     2      0.24910     27.82986     33.20285     11.21880
  158 1     4     -0.12420     26.19235     34.42061     12.27174
  159 1     4     -0.69550     26.56742     31.89869      9.85320
  160 1     2      0.24910     30.09445     34.24928     12.41334
  161 1     4     -0.12420     29.15329     35.78881     13.83360
  162 1     4     -0.69550     32.29826     34.54679     12.87613
  163 1     2      0.24910     27.76692     33.95884     13.87806
  164 1     4     -0.69550     27.17661     32.99004     15.84583
  165 1     2      0.24910     27.92338     35.88223     11.89656
  166 1     4     -0.69550     27.57254     37.85744     10.83137
  167 1     4     -0.12420     29.03413     32.29139     12.93639
  168 1     4     -0.12420     29.23734     34.78950     10.36280
  169 1     2      0.24910      2.36364     25.38659     24.10923
  170 1     4     -0.12420      3.44619     26.70046     25.65030
  171 1     4     -0.69550      0.38826     25.03539     25.17412
  172 1     2      0.24910      4.28733     25.23018     22.12800
  173 1     4     -0.12420      5.96141     26.49595     23.05986
  174 1     4     -0.69550      5.25641     24.63957     20.16038
  175 1     2      0.24910      5.04295     25.29388     24.78735
  176 1     4     -0.69550      6.34714     24.03195     26.15329
  177 1     2      0.24910      3.99613     27.55796     23.59218
  178 1     4     -0.69550      3.69800     29.76148     23.12876
  179 1     4     -0.12420      3.81975     23.66443     23.72831
  180 1     4     -0.12420      2.46012     26.60502     22.17601
  181 1     2      0.24910     10.69251     20.86088     12.41140
  182 1     4     -0.12420      9.75177     19.32184     13.83247
  183 1     4     -0.69550     12.89639     20.56431     12.87446
  184 1     2      0.24910      8.42765     21.90593     11.21618
  185 1     4     -0.12420      6.79047     20.68824     12.26972
  186 1     4     -0.69550      7.16486     23.20894      9.84980
  187 1     2      0.24910      8.36483     21.15140     13.87586
  188 1     4     -0.69550      7.77412     22.12110     15.84306
  189 1     2      0.24910      8.52197     19.22695     11.89542
  190 1     4     -0.69550      8.17181     17.25105     10.83132
  191 1     4     -0.12420      9.63155     22.81872     12.93332
  192 1     4     -0.12420      9.83566     20.31925     10.36112
  193 1     2      0.24910     17.39537      8.14159     23.59320
  194 1     4     -0.12420     18.93504      7.20126     22.17254
  195 1     4     -0.69550     17.69118     10.34553     23.12992
  196 1     2      0.24910     16.35105      5.87648     24.78860
  197 1     4     -0.12420     17.56959      4.23964     23.73552
  198 1     4     -0.69550     15.04839      4.61338     26.15503
  199 1     2      0.24910     19.03003      5.97169     24.10953
  200 1     4     -0.69550     21.00599      5.62235     25.17381
  201 1     2      0.24910     17.10578      5.81364     22.12898
  202 1     4     -0.69550     16.13643      5.22237     20.16177
  203 1     4     -0.12420     17.93717      7.28516     25.64361
  204 1     4     -0.12420     15.43794      7.07988     23.07126
  205 1     2      0.24910     10.70018      1.44335     12.41499
  206 1     4     -0.12420     11.61889     38.73040     13.83559
  207 1     4     -0.69550      8.49646      1.14615     12.87839
  208 1     2      0.24910     12.96457      2.48912     11.21948
  209 1     4     -0.12420     14.60224      1.27160     12.27247
  210 1     4     -0.69550     14.22677      3.79260      9.85301
  211 1     2      0.24910     12.84841     38.63621     11.89853
  212 1     4     -0.69550     13.19895     36.66049     10.83421
  213 1     2      0.24910     13.02803      1.73439     13.87910
  214 1     4     -0.69550     13.61879      2.70410     15.84628
  215 1     4     -0.12420     11.55685      0.90212     10.36454
  216 1     4     -0.12420     11.76069      3.40144     12.93690
  217 1     2      0.24910      1.31887     35.92088     18.98105
  218 1     4     -0.12420      1.42492     35.50924     16.72442
  219 1     4     -0.69550      1.84807     33.87124     19.80468
  220 1     2      0.24910      0.62746     38.59899     18.98127
  221 1     4     -0.12420      0.54357      0.18472     16.72470
  222 1     4     -0.69550      0.12103      1.82238     19.80523
  223 1     2      0.24910     38.46031     36.91436     17.02621
  224 1     4     -0.69550     36.41068     36.38527     16.20268
  225 1     2      0.24910      2.31212     37.60577     17.02611
  226 1     4     -0.69550      4.36166     38.13497     16.20243
  227 1     4     -0.12420     38.06032     36.81091     19.28502
  228 1     4     -0.12420      2.71235     37.70892     19.28489
  229 1     2      0.24910     21.73698     17.50174     17.02792
  230 1     4     -0.12420     22.14864     17.39589     19.28455
  231 1     4     -0.69550     23.78696     16.97382     16.20430
  232 1     2      0.24910     19.05845     18.19151     17.02767
  233 1     4     -0.12420     18.64647     18.29776     19.28423
  234 1     4     -0.69550     17.00860     18.71938     16.20368
  235 1     2      0.24910     20.74243     19.18594     18.98279
  236 1     4     -0.69550     21.27025     21.23588     19.80637
  237 1     2      0.24910     20.05266     16.50741     18.98280
  238 1     4     -0.69550     19.52470     14.45752     19.80642
  239 1     4     -0.12420     20.84567     19.58606     16.72398
  240 1     4     -0.12420     19.94980     16.10717     16.72401
  241 1     1      0.22060      7.45452      0.68060     13.72064
  242 1     1     -0.16330      6.70546      1.57955     14.45419
  243 1     1     -0.16330      5.69215      1.12680     15.27331
  244 1     1      0.22060      5.40360     38.60052     15.36018
  245 1     1     -0.16330      6.15266     37.70157     14.62663
  246 1     1     -0.16330      7.16597     38.15432     13.80752
  247 1     3      0.08830      6.90396      2.59025     14.38944
  248 1     3      0.08830      5.13253      1.79877     15.82138
  249 1     3      0.08830      5.95422     36.69060     14.69130
  250 1     3      0.08830      7.72565     37.48209     13.25937
  251 1     1      0.22060     18.15562     11.38713     22.28805
  252 1     1     -0.16330     17.25529     12.14225     21.56245
  253 1     1     -0.16330     17.70725     13.15583     20.74323
  254 1     1      0.22060     19.06025     13.41592     20.64829
  255 1     1     -0.16330     19.96059     12.66080     21.37389
  256 1     1     -0.16330     19.50863     11.64722     22.19311
  257 1     3      0.08830     16.24416     11.94808     21.63323
  258 1     3      0.08830     17.03424     13.71998     20.20110
  259 1     3      0.08830     20.97199     12.85491     21.30319
  260 1     3      0.08830     20.18190     11.08301     22.73531
  261 1     1      0.22060     15.49881      4.58459     19.06883
  262 1     1     -0.16330     16.24049      3.83151     18.17998
  263 1     1     -0.16330     15.61979      3.21065     17.11603
  264 1     1      0.22060     14.25641      3.34188     16.93923
  265 1     1     -0.16330     13.51472      4.09496     17.82808
  266 1     1     -0.16330     14.13543      4.71582     18.89203
  267 1     3      0.08830     17.25934      3.73329     18.31189
  268 1     3      0.08830     16.17425      2.64793     16.45194
  269 1     3      0.08830     12.49562      4.19328     17.69625
  270 1     3      0.08830     13.58071      5.27865     19.55621
  271 1     1      0.22060     13.93938     20.09638     13.71885
  272 1     1     -0.16330     15.22658     20.56856     13.55325
  273 1     1     -0.16330     16.23890     20.11439     14.37282
  274 1     1      0.22060     15.96562     19.18731     15.35929
  275 1     1     -0.16330     14.67841     18.71513     15.52489
  276 1     1     -0.16330     13.66610     19.16930     14.70532
  277 1     3      0.08830     15.43105     21.26136     12.81615
  278 1     3      0.08830     17.20073     20.46739     14.24887
  279 1     3      0.08830     14.47375     18.02216     16.26213
  280 1     3      0.08830     12.70408     18.81613     14.82941
  281 1     1      0.22060      2.31700     32.82945     20.64730
  282 1     1     -0.16330      1.42211     31.94184     21.21174
  283 1     1     -0.16330      1.87777     30.92955     22.03051
  284 1     1      0.22060      3.22906     30.80326     22.28614
  285 1     1     -0.16330      4.12396     31.69087     21.72170
  286 1     1     -0.16330      3.66829     32.70316     20.90294
  287 1     3      0.08830      0.41226     32.03601     21.02086
  288 1     3      0.08830      1.20883     30.26638     22.45218
  289 1     3      0.08830      5.13408     31.59679     21.91255
  290 1     3      0.08830      4.33750     33.36643     20.48122
  291 1     1      0.22060      5.89422     24.00157     19.06668
  292 1     1     -0.16330      5.82575     22.62881     18.93207
  293 1     1     -0.16330      6.44631     22.00807     17.86796
  294 1     1      0.22060      7.13632     22.75910     16.93676
  295 1     1     -0.16330      7.20478     24.13186     17.07138
  296 1     1     -0.16330      6.58423     24.75260     18.13549
  297 1     3      0.08830      5.31018     22.06735     19.62781
  298 1     3      0.08830      6.39500     20.98220     17.76758
  299 1     3      0.08830      7.72044     24.69356     16.37554
  300 1     3      0.08830      6.63562     25.77871     18.23577
  301 1     1      0.22060     33.34065     35.01280     13.71933
  302 1     1     -0.16330     33.74847     34.25291     14.79801
  303 1     1     -0.16330     34.76148     34.70578     15.61743
  304 1     1      0.22060     35.36829     35.91926     15.35949
  305 1     1     -0.16330     34.96047     36.67915     14.28081
  306 1     1     -0.16330     33.94746     36.22627     13.46138
  307 1     3      0.08830     33.29516     33.34606     14.99097
  308 1     3      0.08830     35.06605     34.13775     16.42346
  309 1     3      0.08830     35.41380     37.58623     14.08769
  310 1     3      0.08830     33.64291     36.79454     12.65520
  311 1     1      0.22060     22.64148     24.30722     22.28973
  312 1     1     -0.16330     21.42658     24.43077     21.64473
  313 1     1     -0.16330     20.97418     23.41746     20.82541
  314 1     1      0.22060     21.73596     22.27899     20.64978
  315 1     1     -0.16330     22.95086     22.15543     21.29478
  316 1     1     -0.16330     23.40327     23.16874     22.11410
  317 1     3      0.08830     20.85712     25.28144     21.77582
  318 1     3      0.08830     20.06626     23.51003     20.34352
  319 1     3      0.08830     23.52055     21.30461     21.16375
  320 1     3      0.08830     24.31142     23.07603     22.59605
  321 1     1      0.22060     25.29806     31.11038     19.06987
  322 1     1     -0.16330     26.47826     31.80062     19.26473
  323 1     1     -0.16330     27.09846     32.42120     18.20032
  324 1     1      0.22060     26.53946     32.35251     16.93934
  325 1     1     -0.16330     25.35926     31.66226     16.74447
  326 1     1     -0.16330     24.73906     31.04169     17.80888
  327 1     3      0.08830     26.89620     31.85209     20.20696
  328 1     3      0.08830     27.98041     32.93695     18.34620
  329 1     3      0.08830     24.94112     31.61070     15.80207
  330 1     3      0.08830     23.85691     30.52585     17.66283
  331 1     1      0.22060     26.85610     15.59552     13.72250
  332 1     1     -0.16330     26.47845     14.85914     14.82813
  333 1     1     -0.16330     25.46582     15.31390     15.64698
  334 1     1      0.22060     24.82922     16.50576     15.36150
  335 1     1     -0.16330     25.20687     17.24214     14.25587
  336 1     1     -0.16330     26.21950     16.78738     13.43703
  337 1     3      0.08830     26.95402     13.96845     15.04168
  338 1     3      0.08830     25.18378     14.76344     16.47315
  339 1     3      0.08830     24.73127     18.13306     14.04217
  340 1     3      0.08830     26.50150     17.33807     12.61070
  341 1     1      0.22060     38.47894      2.86530     20.64933
  342 1     1     -0.16330      0.01365      2.89003     21.98213
  343 1     1     -0.16330     38.38531      3.90233     22.80145
  344 1     1      0.22060     37.56893      4.89152     22.28929
  345 1     1     -0.16330     37.20792      4.86679     20.95649
  346 1     1     -0.16330     37.66257      3.85449     20.13717
  347 1     3      0.08830      0.62371      2.15093     22.36510
  348 1     3      0.08830     38.65523      3.92058     23.79740
  349 1     3      0.08830     36.59772      5.60600     20.57330
  350 1     3      0.08830     37.39251      3.83635     19.14100
  351 1     1      0.22060     34.90299     11.69326     19.07119
  352 1     1     -0.16330     35.46084     11.62434     17.80970
  353 1     1     -0.16330     34.83962     12.24465     16.74573
  354 1     1      0.22060     33.65956     12.93487     16.94154
  355 1     1     -0.16330     33.10172     13.00379     18.20302
  356 1     1     -0.16330     33.72294     12.38348     19.26700
  357 1     3      0.08830     36.34267     11.10860     17.66312
  358 1     3      0.08830     35.25668     12.19300     15.80313
  359 1     3      0.08830     32.21967     13.51962     18.34978
  360 1     3      0.08830     33.30566     12.43522     20.20977
  361 1     1      0.22060      5.63833     11.98704     26.39707
  362 1     1     -0.16330      5.19474     10.72307     26.73303
  363 1     1     -0.16330      3.93432     10.31066     26.35355
  364 1     1      0.22060      3.11548     11.16157     25.63749
  365 1     1     -0.16330      3.55907     12.42555     25.30153
  366 1     1     -0.16330      4.81949     12.83796     25.68101
  367 1     3      0.08830      5.80646     10.08700     27.26813
  368 1     3      0.08830      3.60306      9.36605     26.60473
  369 1     3      0.08830      2.94731     13.06186     24.76631
  370 1     3      0.08830      5.15071     13.78281     25.42971
  371 1     1      0.22060      7.67331     19.97787     27.37479
  372 1     1     -0.16330      6.72137     20.12428     26.38502
  373 1     1     -0.16330      6.30907     21.38466     26.00527
  374 1     1      0.22060      6.84806     22.50063     26.61468
  375 1     1     -0.16330      7.80001     22.35421     27.60445
  376 1     1     -0.16330      8.21231     21.09384     27.98420
  377 1     3      0.08830      6.31843     19.29049     25.92947
  378 1     3      0.08830      5.59768     21.49381     25.26560
  379 1     3      0.08830      8.20312     23.18812     28.06019
  380 1     3      0.08830      8.92388     20.98480     28.72406
  381 1     1      0.22060     13.94257     15.60255     30.72312
  382 1     1     -0.16330     14.64356     16.74408     30.38727
  383 1     1     -0.16330     15.65656     17.19772     31.20629
  384 1     1      0.22060     15.97017     16.51056     32.36246
  385 1     1     -0.16330     15.26918     15.36902     32.69831
  386 1     1     -0.16330     14.25618     14.91538     31.87929
  387 1     3      0.08830     14.40939     17.25777     29.52333
  388 1     3      0.08830     16.18026     18.05080     30.95510
  389 1     3      0.08830     15.50330     14.85512     33.56242
  390 1     3      0.08830     13.73243     14.06209     32.13065
  391 1     1      0.22060      7.67181     15.72016     10.37111
  392 1     1     -0.16330      6.45473     15.55140      9.74061
  393 1     1     -0.16330      6.04295     14.29063      9.36160
  394 1     1      0.22060      6.84760     13.19661      9.61248
  395 1     1     -0.16330      8.06468     13.36537     10.24298
  396 1     1     -0.16330      8.47645     14.62613     10.62199
  397 1     3      0.08830      5.85325     16.36880      9.55302
  398 1     3      0.08830      5.13340     14.16478      8.89045
  399 1     3      0.08830      8.66640     12.54786     10.43068
  400 1     3      0.08830      9.38624     14.75188     11.09324
  401 1     1      0.22060     37.68427     11.15723      8.63496
  402 1     1     -0.16330     36.91559     11.91331      7.77197
  403 1     1     -0.16330     35.65493     12.32503      8.15140
  404 1     1      0.22060     35.16094     11.98132      9.39442
  405 1     1     -0.16330     35.92961     11.22524     10.25742
  406 1     1     -0.16330     37.19027     10.81352      9.87799
  407 1     3      0.08830     37.28453     12.17029      6.84301
  408 1     3      0.08830     35.08070     12.89004      7.50631
  409 1     3      0.08830     35.56071     10.96813     11.18662
  410 1     3      0.08830     37.76454     10.24839     10.52332
  411 1     1      0.22060      3.23670      4.89046      5.28616
  412 1     1     -0.16330      3.45295      4.95534      3.92370
  413 1     1     -0.16330      3.00004      3.94240      3.10420
  414 1     1      0.22060      2.33016      2.86298      3.64586
  415 1     1     -0.16330      2.11392      2.79810      5.00832
  416 1     1     -0.16330      2.56683      3.81104      5.82782
  417 1     3      0.08830      3.95351      5.76188      3.51868
  418 1     3      0.08830      3.16176      3.99111      2.08607
  419 1     3      0.08830      1.61325      1.99143      5.41356
  420 1     3      0.08830      2.40501      3.76219      6.84617
  421 1     1      0.22060      5.89351     11.69256      2.06609
  422 1     1     -0.16330      7.26933     11.65695      1.95148
  423 1     1     -0.16330      7.88929     12.27726      0.88677
  424 1     1      0.22060      7.14202     12.94184     33.94407
  425 1     1     -0.16330      5.75860     12.96977      0.04957
  426 1     1     -0.16330      5.13864     12.34946      1.11429
  427 1     3      0.08830      7.83366     11.16612      2.66263
  428 1     3      0.08830      8.91744     12.25051      0.80135