
#------------------------------------------------------------------------------#
# simulation settings
#------------------------------------------------------------------------------#

##### simulation variables

variable        seed 	equal  77229
variable        T       equal  300	    #K
variable        p       equal  0.0 	#bar
variable        damp_T  equal  100 		  	#K
variable        damp_P  equal  1000.0	  	#bar
variable        dT      equal  1.0 		 	#fs
variable        kb      equal  0.0019872041

## system setup ##

units           real
atom_style      full
boundary        p p p

pair_style      lj/cut/coul/long 12.500
bond_style      harmonic
angle_style     hybrid fourier cosine/periodic
dihedral_style  harmonic
improper_style  fourier
kspace_style 	ewald 0.000001

dielectric 	 	1.0
pair_modify 	tail yes mix arithmetic
special_bonds 	lj/coul 0.0 0.0 1.0

read_data 	 	../data.emin_pto-4c_In-3c_BTB_DMA_fe
Reading data file ...
  triclinic box = (1.0127974 1.2506642 1.0737052) to (27.573203 27.546212 27.449243) with tilt (-0.4871608 -0.79355401 -0.31961632)
  2 by 1 by 2 MPI processor grid
  reading atoms ...
  456 atoms
  reading velocities ...
  456 velocities
  scanning bonds ...
  8 = max bonds/atom
  scanning angles ...
  28 = max angles/atom
  scanning dihedrals ...
  12 = max dihedrals/atom
  scanning impropers ...
  3 = max impropers/atom
  reading bonds ...
  516 bonds
  reading angles ...
  972 angles
  reading dihedrals ...
  1164 dihedrals
  reading impropers ...
  648 impropers
Finding 1-2 1-3 1-4 neighbors ...
  special bond factors lj:    0        0        1       
  special bond factors coul:  0        0        1       
     8 = max # of 1-2 neighbors
     9 = max # of 1-3 neighbors
    12 = max # of special neighbors
  special bonds CPU = 0.000 seconds
  read_data CPU = 0.003 seconds
include 	 	../non_bonded_pto-4c_In-3c_BTB.param
### Parameters for Equilibration ###

### Parameters for MOF ###

mass 1 12.010700000
mass 2 1.007940000
mass 3 114.818000000
mass 4 15.999400000


bond_coeff 1 462.655054 1.379256
bond_coeff 2 391.669513 1.458000
bond_coeff 3 357.440381 1.081418
bond_coeff 4 187.991596 2.033568
bond_coeff 5 646.680887 1.311940

angle_coeff 1 cosine/periodic 111.297508 -1 3
angle_coeff 2 cosine/periodic 102.183280 -1 3
angle_coeff 3 cosine/periodic 57.289016 -1 3
angle_coeff 4 fourier 127.915933 0.343737 0.374972 0.281246
angle_coeff 5 cosine/periodic 77.909182 -1 3
angle_coeff 6 cosine/periodic 131.755710 -1 3
angle_coeff 7 cosine/periodic 187.136328 -1 3

dihedral_coeff 1 3.368555 -1 2
dihedral_coeff 2 1.250000 -1 2
dihedral_coeff 3 6.737110 -1 2

improper_coeff 1 2.000000 1.000000 -1.000000 0.000000 0

### Parameters for Molecule ###

mass 5 12.010700000
mass 6 1.007940000
mass 7 14.006700000


bond_coeff 6 331.069389 1.109401
bond_coeff 7 528.634538 1.451071
bond_coeff 8 527.945261 1.044419

angle_coeff 8 fourier 75.498766 0.343737 0.374972 0.281246
angle_coeff 9 fourier 169.780468 0.343737 0.374972 0.281246
angle_coeff 10 fourier 260.869388 0.317506 0.313225 0.272502
angle_coeff 11 fourier 144.695053 0.317506 0.313225 0.272502
angle_coeff 12 fourier 97.017167 0.317506 0.313225 0.272502

dihedral_coeff 4 0.054250 1 3


pair_coeff 1 1 0.105 3.43085
pair_coeff 1 2 0.0679706 3.00099
pair_coeff 1 3 0.250789 3.70347
pair_coeff 1 4 0.0793725 3.2745
pair_coeff 1 5 0.105 3.43085
pair_coeff 1 6 0.0679706 3.00099
pair_coeff 1 7 0.0851176 3.34577
pair_coeff 2 2 0.044 2.57113
pair_coeff 2 3 0.162345 3.27361
pair_coeff 2 4 0.0513809 2.84464
pair_coeff 2 5 0.0679706 3.00099
pair_coeff 2 6 0.044 2.57113
pair_coeff 2 7 0.0550999 2.91591
pair_coeff 3 3 0.599 3.97608
pair_coeff 3 4 0.189578 3.54711
pair_coeff 3 5 0.250789 3.70347
pair_coeff 3 6 0.162345 3.27361
pair_coeff 3 7 0.2033 3.61838
pair_coeff 4 4 0.06 3.11815
pair_coeff 4 5 0.0793725 3.2745
pair_coeff 4 6 0.0513809 2.84464
pair_coeff 4 7 0.0643428 3.18942
pair_coeff 5 5 0.105 3.43085
pair_coeff 5 6 0.0679706 3.00099
pair_coeff 5 7 0.0851176 3.34577
pair_coeff 6 6 0.044 2.57113
pair_coeff 6 7 0.0550999 2.91591
pair_coeff 7 7 0.069 3.26069

group			fram type < 5
390 atoms in group fram
group			cation type > 4
66 atoms in group cation
group			center type 7
6 atoms in group center

#------------------------------------------------------------------------------#
# ti/spring definition
#------------------------------------------------------------------------------#

reset_timestep	0

variable		t_s equal 1000000
variable		t_eq equal 500000

variable        t_eq equal ${t_eq}-1
variable        t_eq equal 500000-1
variable        t_s equal ${t_s}+1
variable        t_s equal 1000000+1

fix             fs1 fram ti/spring 10 ${t_s} ${t_eq} function 2
fix             fs1 fram ti/spring 10 1000001 ${t_eq} function 2
fix             fs1 fram ti/spring 10 1000001 499999 function 2
fix             fs2 center ti/spring 1 ${t_s} ${t_eq} function 2
fix             fs2 center ti/spring 1 1000001 ${t_eq} function 2
fix             fs2 center ti/spring 1 1000001 499999 function 2

variable        dE equal f_fs1+f_fs2
variable        lambda equal f_fs1[1]

fix				f1 all nve
fix 			f2 all langevin ${T} ${T} ${damp_T} ${seed} zero yes
fix 			f2 all langevin 300 ${T} ${damp_T} ${seed} zero yes
fix 			f2 all langevin 300 300 ${damp_T} ${seed} zero yes
fix 			f2 all langevin 300 300 100 ${seed} zero yes
fix 			f2 all langevin 300 300 100 77229 zero yes
compute 		c1 all temp/com
fix_modify		f2 temp c1

thermo_style	custom step etotal ke pe temp press density vol evdwl etail ecoul elong epair f_fs1 f_fs2
thermo 			1000

#------------------------------------------------------------------------------#
# switching
#------------------------------------------------------------------------------#

### forward integration, save to forward.dat

run             ${t_eq}
run             499999

CITE-CITE-CITE-CITE-CITE-CITE-CITE-CITE-CITE-CITE-CITE-CITE-CITE

Your simulation uses code contributions which should be cited:

- ti/spring command:

@article{freitas2016,
  author={Freitas, Rodrigo and Asta, Mark and de Koning, Maurice},
  title={Nonequilibrium free-energy calculation of solids using LAMMPS},
  journal={Computational Materials Science},
  volume={112},
  pages={333--341},
  year={2016},
  publisher={Elsevier}
}

CITE-CITE-CITE-CITE-CITE-CITE-CITE-CITE-CITE-CITE-CITE-CITE-CITE

Ewald initialization ...
WARNING: System is not charge neutral, net charge = -6e-05 (../kspace.cpp:327)
  using 12-bit tables for long-range coulomb (../kspace.cpp:342)
  G vector (1/distance) = 0.23481561
  estimated absolute RMS force accuracy = 0.00037577262
  estimated relative force accuracy = 1.1316281e-06
  KSpace vectors: actual max1d max3d = 458 6 1098
                  kxmax kymax kzmax  = 6 6 6
Generated 0 of 21 mixed pair_coeff terms from arithmetic mixing rule
Neighbor list info ...
  update every 1 steps, delay 10 steps, check yes
  max neighbors/atom: 2000, page size: 100000
  master list distance cutoff = 14.5
  ghost atom cutoff = 14.5
  binsize = 7.25, bins = 4 4 4
  1 neighbor lists, perpetual/occasional/extra = 1 0 0
  (1) pair lj/cut/coul/long, perpetual
      attributes: half, newton on
      pair build: half/bin/newton/tri
      stencil: half/bin/3d/tri
      bin: standard
WARNING: Inconsistent image flags (../domain.cpp:819)
Per MPI rank memory allocation (min/avg/max) = 30.6 | 30.6 | 30.6 Mbytes
   Step         TotEng         KinEng         PotEng          Temp          Press         Density         Volume         E_vdwl         E_tail         E_coul         E_long         E_pair         f_fs1          f_fs2     
         0   2326.8658      399.33152      1927.5342      294.43396      753.49012      0.40101743     18421.214      321.08744     -4.3577412     -1501.1344     -1193.6031     -2373.6501      0              0            
      1000   2751.4688      403.92451      2347.5443      297.82045     -1115.3419      0.40101743     18421.214      329.6923      -4.3577412     -1472.5664     -1191.8218     -2334.6959      0              0            
      2000   2777.1125      426.7328       2350.3796      314.63739     -866.98701      0.40101743     18421.214      332.64613     -4.3577412     -1497.5405     -1192.4028     -2357.2973      0              0            
      3000   2755.4205      410.52043      2344.9001      302.68373      714.51305      0.40101743     18421.214      357.51299     -4.3577412     -1504.9182     -1190.4127     -2337.8179      0              0            
      4000   2738.7863      397.50895      2341.2774      293.09014     -376.26309      0.40101743     18421.214      343.43667     -4.3577412     -1488.0529     -1190.7461     -2335.3623      0              0            
      5000   2800.6982      435.84872      2364.8495      321.35871     -1033.6462      0.40101743     18421.214      338.19763     -4.3577412     -1493.1594     -1189.8046     -2344.7664      0              0            
      6000   2776.701       407.80987      2368.8911      300.68519     -1586.1171      0.40101743     18421.214      346.4549      -4.3577412     -1480.579      -1188.4364     -2322.5605      0              0            
      7000   2746.6321      393.59039      2353.0417      290.20092     -1528.15        0.40101743     18421.214      329.25851     -4.3577412     -1491.9065     -1192.4835     -2355.1314      0              0            
      8000   2745.0153      401.52756      2343.4878      296.05314      311.35082      0.40101743     18421.214      352.91557     -4.3577412     -1490.4238     -1192.7939     -2330.3021      0              0            
      9000   2740.4326      423.46234      2316.9702      312.22602      756.3794       0.40101743     18421.214      344.30594     -4.3577412     -1494.8307     -1191.3653     -2341.89        0              0            
     10000   2783.2727      434.12178      2349.1509      320.08541      801.34223      0.40101743     18421.214      361.23593     -4.3577412     -1483.6131     -1189.9227     -2312.2999      0              0            
     11000   2781.0843      438.3316       2342.7527      323.18938     -184.49923      0.40101743     18421.214      351.58167     -4.3577412     -1482.6332     -1191.6013     -2322.6528      0              0            
     12000   2746.3584      379.74916      2366.6093      279.99554      1042.1523      0.40101743     18421.214      353.6372      -4.3577412     -1484.1489     -1191.2688     -2321.7805      0              0            
     13000   2760.9678      404.80053      2356.1673      298.46635      820.52396      0.40101743     18421.214      367.10991     -4.3577412     -1485.5386     -1192.1973     -2310.626       0              0            
     14000   2795.0166      426.66927      2368.3473      314.59054      1007.5369      0.40101743     18421.214      354.64607     -4.3577412     -1470.9471     -1191.6559     -2307.957       0              0            
     15000   2696.102       369.67625      2326.4258      272.56862     -439.99142      0.40101743     18421.214      330.61962     -4.3577412     -1490.2785     -1191.4483     -2351.1073      0              0            
     16000   2791.372       426.69528      2364.6767      314.60972     -300.7218       0.40101743     18421.214      346.12333     -4.3577412     -1485.5648     -1193.2894     -2332.7309      0              0            
     17000   2758.0341      393.81332      2364.2208      290.36529     -786.73385      0.40101743     18421.214      350.87278     -4.3577412     -1499.9782     -1191.1521     -2340.2575      0              0            
     18000   2757.6898      424.28642      2333.4033      312.83363      58.489529      0.40101743     18421.214      362.90756     -4.3577412     -1496.8695     -1191.1243     -2325.0863      0              0            
     19000   2738.7386      414.98838      2323.7502      305.97803     -701.37799      0.40101743     18421.214      341.72887     -4.3577412     -1496.4164     -1190.3903     -2345.0778      0              0            
     20000   2797.1971      447.276        2349.9211      329.78424     -970.05724      0.40101743     18421.214      348.47956     -4.3577412     -1491.9468     -1193.4315     -2336.8988      0              0            
     21000   2740.1474      386.69767      2353.4497      285.1188      -846.85468      0.40101743     18421.214      352.86525     -4.3577412     -1487.6924     -1191.7157     -2326.5429      0              0            
     22000   2734.1874      386.93391      2347.2535      285.29299      1321.6458      0.40101743     18421.214      364.61312     -4.3577412     -1503.9349     -1190.6406     -2329.9624      0              0            
     23000   2752.7526      429.97626      2322.7764      317.02884      1043.3752      0.40101743     18421.214      350.1794      -4.3577412     -1497.2879     -1191.0018     -2338.1103      0              0            
     24000   2762.0327      425.15029      2336.8824      313.47057      2276.5963      0.40101743     18421.214      365.9527      -4.3577412     -1481.1065     -1190.3341     -2305.4879      0              0            
     25000   2772.1456      421.23044      2350.9151      310.5804      -397.22381      0.40101743     18421.214      346.24421     -4.3577412     -1487.9588     -1190.298      -2332.0126      0              0            
     26000   2741.4412      405.91792      2335.5232      299.29022      296.85472      0.40101743     18421.214      354.16209     -4.3577412     -1473.0172     -1191.3914     -2310.2465      0              0            
     27000   2750.8945      405.68026      2345.2142      299.11499      1189.2475      0.40101743     18421.214      359.68274     -4.3577412     -1505.6468     -1190.9726     -2336.9366      0              0            
     28000   2797.4033      413.32564      2384.0776      304.75206      762.11529      0.40101743     18421.214      358.72156     -4.3577412     -1493.3568     -1192.4235     -2327.0588      0              0            
     29000   2751.0665      408.11553      2342.9509      300.91055     -916.57769      0.40101743     18421.214      331.78709     -4.3577412     -1500.2041     -1192.0619     -2360.4789      0              0            
     30000   2731.5871      429.96701      2301.6201      317.02203     -128.16065      0.40101743     18421.214      335.04431     -4.3577412     -1495.1952     -1191.913      -2352.0639      0              0            
     31000   2761.0609      394.92873      2366.1322      291.1877       213.56718      0.40101743     18421.214      353.20743     -4.3577412     -1481.9167     -1191.2308     -2319.9401      0              0            
     32000   2752.4971      402.32097      2350.1762      296.63813     -612.42288      0.40101743     18421.214      334.17456     -4.3577412     -1496.6912     -1193.1775     -2355.6942      0              0            
     33000   2763.5239      415.47812      2348.0458      306.33912      424.79964      0.40101743     18421.214      375.85152     -4.3577412     -1500.2661     -1193.3659     -2317.7805      0              0            
     34000   2741.9507      394.41523      2347.5355      290.80909      454.16334      0.40101743     18421.214      336.85911     -4.3577412     -1467.379      -1192.6797     -2323.1995      0              0            
     35000   2760.1293      415.74518      2344.3841      306.53602     -1094.9531      0.40101743     18421.214      326.99776     -4.3577412     -1492.6641     -1191.3235     -2356.9899      0              0            
     36000   2725.681       408.48285      2317.1981      301.18139      681.38619      0.40101743     18421.214      346.53999     -4.3577412     -1481.9259     -1190.9701     -2326.356       0              0            
     37000   2748.6396      409.44309      2339.1965      301.88939     -754.02557      0.40101743     18421.214      344.16705     -4.3577412     -1475.6336     -1191.8848     -2323.3513      0              0            
     38000   2790.8283      416.31315      2374.5151      306.9548      -1449.025       0.40101743     18421.214      332.06814     -4.3577412     -1489.6978     -1190.6383     -2348.268       0              0            
     39000   2758.0159      426.9083       2331.1076      314.76678     -365.2228       0.40101743     18421.214      342.02495     -4.3577412     -1483.6387     -1192.078      -2333.6917      0              0            
     40000   2729.1419      388.59951      2340.5424      286.52106     -1148.6963      0.40101743     18421.214      341.92153     -4.3577412     -1475.5144     -1190.9483     -2324.5411      0              0            
     41000   2807.6763      452.55411      2355.1221      333.67588      445.71922      0.40101743     18421.214      334.88696     -4.3577412     -1476.4732     -1191.6164     -2333.2026      0              0            
     42000   2691.3206      369.73752      2321.583       272.61379     -553.90451      0.40101743     18421.214      343.96468     -4.3577412     -1476.6988     -1191.7713     -2324.5053      0              0            
     43000   2769.7775      409.16336      2360.6142      301.68314      845.63612      0.40101743     18421.214      335.5237      -4.3577412     -1489.4069     -1191.0759     -2344.9591      0              0            
     44000   2790.4385      416.83691      2373.6016      307.34098      88.595549      0.40101743     18421.214      342.4781      -4.3577412     -1499.6346     -1192.6736     -2349.8301      0              0            
     45000   2721.9587      393.37315      2328.5856      290.04075     -1062.5228      0.40101743     18421.214      338.2725      -4.3577412     -1479.405      -1191.791      -2332.9236      0              0            
     46000   2787.9893      418.90392      2369.0854      308.86502     -228.98528      0.40101743     18421.214      339.87294     -4.3577412     -1477.6838     -1191.0059     -2328.8167      0              0            
     47000   2771.2998      397.89122      2373.4086      293.372        715.92893      0.40101743     18421.214      363.15816     -4.3577412     -1480.4891     -1192.6252     -2309.9562      0              0            
     48000   2732.8708      412.55159      2320.3192      304.18134      516.50715      0.40101743     18421.214      337.33731     -4.3577412     -1482.8208     -1191.838      -2337.3215      0              0            
     49000   2777.1503      412.692        2364.4583      304.28486     -858.81001      0.40101743     18421.214      342.18408     -4.3577412     -1486.8851     -1193.8158     -2338.5168      0              0            
     50000   2763.0929      411.74124      2351.3516      303.58386     -374.13553      0.40101743     18421.214      350.97882     -4.3577412     -1492.6692     -1194.659      -2336.3494      0              0            
     51000   2751.7991      413.70679      2338.0923      305.03308     -1771.4836      0.40101743     18421.214      334.9538      -4.3577412     -1500.5378     -1195.1218     -2360.7058      0              0            
     52000   2770.0987      430.90367      2339.1951      317.71264      951.06634      0.40101743     18421.214      365.78165     -4.3577412     -1495.8036     -1195.6423     -2325.6643      0              0            
     53000   2744.1136      404.01481      2340.0988      297.88703      1076.5275      0.40101743     18421.214      351.31535     -4.3577412     -1510.2678     -1195.6252     -2354.5776      0              0            
     54000   2761.7538      400.82572      2360.9281      295.53566     -844.89005      0.40101743     18421.214      347.53294     -4.3577412     -1482.1416     -1195.4067     -2330.0154      0              0            
     55000   2732.1541      404.97959      2327.1745      298.59837     -735.71043      0.40101743     18421.214      345.12712     -4.3577412     -1488.3395     -1194.0647     -2337.2771      0              0            
     56000   2745.085       414.37663      2330.7084      305.52697      442.74864      0.40101743     18421.214      349.11524     -4.3577412     -1500.5007     -1193.2056     -2344.5911      0              0            
     57000   2711.5017      377.75816      2333.7435      278.52755      1135.7484      0.40101743     18421.214      349.75505     -4.3577412     -1483.5072     -1193.346      -2327.0982      0              0            
     58000   2727.9034      395.58581      2332.3175      291.67218     -1206.0938      0.40101743     18421.214      354.56643     -4.3577412     -1497.8787     -1194.6054     -2337.9176      0              0            
     59000   2758.6631      421.92092      2336.7422      311.08951      1832.5087      0.40101743     18421.214      360.90357     -4.3577412     -1484.781      -1193.999      -2317.8764      0              0            
     60000   2773.0759      399.5977       2373.4782      294.63021     -1468.8515      0.40101743     18421.214      333.50785     -4.3577412     -1483.7187     -1193.5707     -2343.7815      0              0            
     61000   2760.7403      409.25118      2351.4892      301.74789     -250.54847      0.40101743     18421.214      350.01831     -4.3577412     -1484.2586     -1192.9231     -2327.1634      0              0            
     62000   2744.7274      398.6954       2346.032       293.96493     -535.69485      0.40101743     18421.214      348.37144     -4.3577412     -1485.5003     -1194.8456     -2331.9744      0              0            
     63000   2761.7626      403.0964       2358.6662      297.20987      183.29288      0.40101743     18421.214      339.40564     -4.3577412     -1476.8129     -1194.4863     -2331.8935      0              0            
     64000   2746.2583      391.78864      2354.4696      288.87246     -153.08374      0.40101743     18421.214      348.99832     -4.3577412     -1491.7752     -1194.9872     -2337.764       0              0            
     65000   2752.9893      409.28228      2343.707       301.77082     -419.80296      0.40101743     18421.214      351.51846     -4.3577412     -1477.916      -1194.6441     -2321.0416      0              0            
     66000   2732.3206      396.85514      2335.4654      292.60807     -192.56775      0.40101743     18421.214      350.05014     -4.3577412     -1485.0053     -1194.9177     -2329.8728      0              0            
     67000   2767.7185      416.32571      2351.3928      306.96406     -966.0126       0.40101743     18421.214      343.85725     -4.3577412     -1493.0985     -1196.2613     -2345.5025      0              0            
     68000   2748.056       412.40237      2335.6537      304.07131     -295.94393      0.40101743     18421.214      341.75352     -4.3577412     -1489.5249     -1193.3155     -2341.0869      0              0            
     69000   2780.9693      414.41725      2366.552       305.55693     -271.04574      0.40101743     18421.214      356.93367     -4.3577412     -1482.7396     -1195.2783     -2321.0842      0              0            
     70000   2727.0721      380.23524      2346.8369      280.35394     -1422.7318      0.40101743     18421.214      321.66929     -4.3577412     -1483.2603     -1195.4953     -2357.0863      0              0            
     71000   2768.5294      402.58448      2365.9449      296.83242     -224.55597      0.40101743     18421.214      340.70191     -4.3577412     -1508.2867     -1194.4139     -2361.9987      0              0            
     72000   2781.1405      438.68756      2342.453       323.45184      125.20478      0.40101743     18421.214      347.41182     -4.3577412     -1494.2        -1194.0353     -2340.8235      0              0            
     73000   2790.896       429.95457      2360.9414      317.01285      994.02678      0.40101743     18421.214      352.24342     -4.3577412     -1488.0677     -1194.052      -2329.8763      0              0            
     74000   2780.8575      405.82722      2375.0303      299.22334      775.09543      0.40101743     18421.214      356.15129     -4.3577412     -1471.7717     -1195.587      -2311.2075      0              0            
     75000   2753.725       399.57201      2354.1529      294.61127      363.82783      0.40101743     18421.214      356.98265     -4.3577412     -1476.2649     -1193.3154     -2312.5976      0              0            
     76000   2755.0415      404.56019      2350.4814      298.28914     -502.84886      0.40101743     18421.214      346.35867     -4.3577412     -1492.6946     -1193.7285     -2340.0644      0              0            
     77000   2751.5104      420.63722      2330.8732      310.14301     -556.87539      0.40101743     18421.214      336.80563     -4.3577412     -1509.0609     -1194.5532     -2366.8085      0              0            
     78000   2734.2861      414.48733      2319.7988      305.60859      443.70902      0.40101743     18421.214      333.10567     -4.3577412     -1492.1688     -1194.7052     -2353.7684      0              0            
     79000   2758.9049      423.31371      2335.5912      312.11643     -1129.2288      0.40101743     18421.214      346.72895     -4.3577412     -1497.9246     -1193.5144     -2344.7101      0              0            
     80000   2761.9119      409.23121      2352.6807      301.73316      942.21262      0.40101743     18421.214      352.03945     -4.3577412     -1496.0732     -1195.3932     -2339.427       0              0            
     81000   2758.8905      422.18444      2336.706       311.28381      810.67806      0.40101743     18421.214      352.55659     -4.3577412     -1478.8161     -1193.3864     -2319.6459      0              0            
     82000   2764.4958      421.27717      2343.2187      310.61485     -186.73477      0.40101743     18421.214      347.44697     -4.3577412     -1487.9821     -1192.1859     -2332.721       0              0            
     83000   2771.9609      419.33492      2352.626       309.18281      353.01143      0.40101743     18421.214      374.05737     -4.3577412     -1483.6849     -1193.1686     -2302.7961      0              0            
     84000   2783.6911      430.86422      2352.8269      317.68355      74.74507       0.40101743     18421.214      341.16701     -4.3577412     -1485.3744     -1195.1778     -2339.3852      0              0            
     85000   2747.9309      400.99579      2346.9351      295.66105      23.748206      0.40101743     18421.214      341.27151     -4.3577412     -1492.711      -1194.3242     -2345.7637      0              0            
     86000   2768.9377      391.41009      2377.5276      288.59335     -752.91918      0.40101743     18421.214      346.67926     -4.3577412     -1487.3989     -1195.5721     -2336.2917      0              0            
     87000   2738.9415      392.28526      2346.6563      289.23863     -1055.1507      0.40101743     18421.214      342.15455     -4.3577412     -1496.4929     -1194.6838     -2349.0222      0              0            
     88000   2774.223       430.01229      2344.2107      317.05541     -98.948836      0.40101743     18421.214      342.06039     -4.3577412     -1482.3424     -1194.2113     -2334.4934      0              0            
     89000   2748.3862      395.28839      2353.0978      291.45289      1382.7296      0.40101743     18421.214      363.54393     -4.3577412     -1495.9592     -1196.3823     -2328.7976      0              0            
     90000   2743.6941      421.72982      2321.9643      310.9486       1346.7903      0.40101743     18421.214      348.70336     -4.3577412     -1499.0737     -1195.9858     -2346.3562      0              0            
     91000   2749.7675      396.44783      2353.3197      292.30776      1139.5004      0.40101743     18421.214      353.31695     -4.3577412     -1479.8327     -1194.6327     -2321.1484      0              0            
     92000   2762.4753      416.08858      2346.3867      306.78922     -894.71905      0.40101743     18421.214      346.17565     -4.3577412     -1500.9244     -1194.3058     -2349.0545      0              0            
     93000   2764.5086      415.4067       2349.1019      306.28646     -100.62818      0.40101743     18421.214      344.47989     -4.3577412     -1502.8472     -1194.3495     -2352.7168      0              0            
     94000   2750.748       410.07408      2340.6739      302.35463     -148.32683      0.40101743     18421.214      350.10096     -4.3577412     -1495.2924     -1195.3649     -2340.5563      0              0            
     95000   2768.9474      414.74829      2354.1991      305.80101      1176.6569      0.40101743     18421.214      360.73456     -4.3577412     -1481.6358     -1195.4661     -2316.3673      0              0            
     96000   2750.7881      398.63254      2352.1555      293.91859     -73.996954      0.40101743     18421.214      342.7677      -4.3577412     -1481.0365     -1194.3206     -2332.5894      0              0            
     97000   2776.6647      408.53927      2368.1254      301.22298     -8.0779951      0.40101743     18421.214      331.72557     -4.3577412     -1488.0588     -1193.5927     -2349.9259      0              0            
     98000   2743.9645      396.81876      2347.1458      292.58125     -486.03216      0.40101743     18421.214      340.81342     -4.3577412     -1477.2691     -1194.9019     -2331.3576      0              0            
     99000   2741.411       386.50586      2354.9051      284.97737     -663.16575      0.40101743     18421.214      341.40425     -4.3577412     -1508.1444     -1194.8629     -2361.6031      0              0            
    100000   2736.2541      411.85087      2324.4032      303.66468      185.21254      0.40101743     18421.214      341.65808     -4.3577412     -1469.9219     -1194.3663     -2322.6302      0              0            
    101000   2738.9559      415.54464      2323.4113      306.38816     -1181.2646      0.40101743     18421.214      340.1382      -4.3577412     -1510.9695     -1193.5042     -2364.3355      0              0            
    102000   2792.3557      415.71156      2376.6441      306.51124      534.53198      0.40101743     18421.214      349.59897     -4.3577412     -1495.1445     -1193.755      -2339.3004      0              0            
    103000   2764.8846      419.13556      2345.749       309.03581     -652.50572      0.40101743     18421.214      343.74504     -4.3577412     -1496.5042     -1195.551      -2348.3102      0              0            
    104000   2757.1309      433.13187      2323.999       319.35553      380.92618      0.40101743     18421.214      347.24766     -4.3577412     -1482.072      -1195.4752     -2330.2995      0              0            
    105000   2755.007       414.31085      2340.6961      305.47847     -89.749376      0.40101743     18421.214      340.87548     -4.3577412     -1498.1736     -1194.834      -2352.132       0              0            
    106000   2756.1878      396.1695       2360.0183      292.10255      1220.8582      0.40101743     18421.214      355.64002     -4.3577412     -1489.954      -1194.1268     -2328.4408      0              0            
    107000   2780.9241      423.17244      2357.7517      312.01227      76.217363      0.40101743     18421.214      345.98374     -4.3577412     -1474.8394     -1192.8642     -2321.7198      0              0            
    108000   2773.7142      423.06736      2350.6468      311.9348       17.179049      0.40101743     18421.214      335.53698     -4.3577412     -1477.1875     -1194.4339     -2336.0845      0              0            
    109000   2770.7912      397.13098      2373.6603      292.81146      257.07711      0.40101743     18421.214      339.36332     -4.3577412     -1478.027      -1195.5386     -2334.2022      0              0            
    110000   2759.7542      428.47041      2331.2838      315.91856     -88.754471      0.40101743     18421.214      345.6761      -4.3577412     -1494.3687     -1194.0539     -2342.7465      0              0            
    111000   2746.027       402.33849      2343.6885      296.65104     -780.86518      0.40101743     18421.214      346.25147     -4.3577412     -1493.3992     -1194.2012     -2341.349       0              0            
    112000   2741.3157      405.65511      2335.6606      299.09645      265.06178      0.40101743     18421.214      343.20863     -4.3577412     -1487.5515     -1193.7561     -2338.099       0              0            
    113000   2754.5184      405.84804      2348.6703      299.2387      -1930.3138      0.40101743     18421.214      325.88714     -4.3577412     -1476.8315     -1194.8309     -2345.7752      0              0            
    114000   2735.5218      394.99442      2340.5274      291.23614      151.39857      0.40101743     18421.214      338.25991     -4.3577412     -1482.5164     -1194.1496     -2338.406       0              0            
    115000   2805.6329      428.92945      2376.7034      316.25702     -1466.8485      0.40101743     18421.214      337.36822     -4.3577412     -1479.1759     -1194.3929     -2336.2006      0              0            
    116000   2730.7641      402.96513      2327.799       297.11308      1609.1155      0.40101743     18421.214      363.84607     -4.3577412     -1489.2548     -1195.9242     -2321.3329      0              0            
    117000   2739.6689      418.17584      2321.493       308.32819      222.4029       0.40101743     18421.214      348.79247     -4.3577412     -1494.5843     -1192.6668     -2338.4586      0              0            
    118000   2768.8541      426.74391      2342.1102      314.64558      84.292585      0.40101743     18421.214      339.12659     -4.3577412     -1480.4337     -1195.3748     -2336.682       0              0            
    119000   2766.8157      406.97319      2359.8425      300.06829      170.20558      0.40101743     18421.214      347.82852     -4.3577412     -1482.7071     -1194.3907     -2329.2693      0              0            
    120000   2757.0577      428.90491      2328.1528      316.23892     -1141.7479      0.40101743     18421.214      336.6081      -4.3577412     -1489.192      -1195.1609     -2347.7448      0              0            
    121000   2729.2542      403.59274      2325.6615      297.57583     -866.97395      0.40101743     18421.214      343.81988     -4.3577412     -1493.6983     -1194.9958     -2344.8742      0              0            
    122000   2760.3092      410.03046      2350.2788      302.32246      52.685163      0.40101743     18421.214      355.38851     -4.3577412     -1487.9616     -1195.2095     -2327.7827      0              0            
    123000   2761.4055      411.56675      2349.8387      303.4552      -1076.7891      0.40101743     18421.214      329.0909      -4.3577412     -1485.0777     -1194.6774     -2350.6641      0              0            
    124000   2751.7842      402.62347      2349.1607      296.86116      531.19582      0.40101743     18421.214      359.48403     -4.3577412     -1493.7574     -1195.0228     -2329.2962      0              0            
    125000   2726.06        397.3845       2328.6755      292.99839     -458.72715      0.40101743     18421.214      343.27721     -4.3577412     -1481.4467     -1193.1486     -2331.318       0              0            
    126000   2732.4002      412.18718      2320.213       303.91265     -370.68709      0.40101743     18421.214      331.66089     -4.3577412     -1497.0394     -1195.0007     -2360.3793      0              0            
    127000   2748.3248      404.0107       2344.3141      297.884        810.49048      0.40101743     18421.214      346.24243     -4.3577412     -1468.9568     -1194.7791     -2317.4935      0              0            
    128000   2745.4635      420.52688      2324.9366      310.06165      346.29724      0.40101743     18421.214      335.53039     -4.3577412     -1491.3581     -1193.7448     -2349.5726      0              0            
    129000   2746.486       402.48749      2343.9985      296.7609      -100.14631      0.40101743     18421.214      357.03726     -4.3577412     -1483.6553     -1194.4487     -2321.0667      0              0            
    130000   2794.6909      415.20936      2379.4815      306.14096     -766.49527      0.40101743     18421.214      349.34828     -4.3577412     -1487.6        -1194.0644     -2332.3161      0              0            
    131000   2781.2889      445.87953      2335.4094      328.7546       198.77627      0.40101743     18421.214      350.86125     -4.3577412     -1489.2017     -1194.9851     -2333.3255      0              0            
    132000   2764.8483      428.48953      2336.3588      315.93265      849.77429      0.40101743     18421.214      344.57499     -4.3577412     -1505.2928     -1194.8694     -2355.5872      0              0            
    133000   2700.5688      397.84448      2302.7243      293.33754     -209.98374      0.40101743     18421.214      358.8237      -4.3577412     -1496.8856     -1195.8444     -2333.9063      0              0            
    134000   2757.9895      412.08569      2345.9038      303.83782     -182.94978      0.40101743     18421.214      354.84578     -4.3577412     -1491.0016     -1194.5981     -2330.754       0              0            
    135000   2775.5365      411.02041      2364.5161      303.05238     -1148.4874      0.40101743     18421.214      346.90474     -4.3577412     -1483.3547     -1193.536      -2329.986       0              0            
    136000   2725.2081      406.40443      2318.8036      299.64894      617.32802      0.40101743     18421.214      341.23554     -4.3577412     -1487.1097     -1195.055      -2340.9292      0              0            
    137000   2745.8293      406.48838      2339.3409      299.71083     -833.93292      0.40101743     18421.214      344.55718     -4.3577412     -1488.6018     -1194.5402     -2338.5848      0              0            
    138000   2717.3343      400.66305      2316.6712      295.41571      13.795652      0.40101743     18421.214      348.83614     -4.3577412     -1489.8831     -1195.358      -2336.4049      0              0            
    139000   2764.0921      418.86765      2345.2245      308.83828     -905.51073      0.40101743     18421.214      342.67474     -4.3577412     -1472.4605     -1194.1901     -2323.9759      0              0            
    140000   2757.7563      420.29285      2337.4634      309.8891       602.27691      0.40101743     18421.214      353.12263     -4.3577412     -1505.6495     -1195.3878     -2347.9147      0              0            
    141000   2730.6076      403.39551      2327.2121      297.43041     -819.33838      0.40101743     18421.214      323.7694      -4.3577412     -1494.4349     -1194.8359     -2365.5014      0              0            
    142000   2789.85        437.09017      2352.7598      322.27406      707.89029      0.40101743     18421.214      353.47572     -4.3577412     -1499.7916     -1192.8589     -2339.1747      0              0            
    143000   2742.4293      422.08474      2320.3446      311.21029      1183.4075      0.40101743     18421.214      363.29502     -4.3577412     -1490.6155     -1195.1111     -2322.4316      0              0            
    144000   2761.1451      420.46163      2340.6835      310.01354     -94.770568      0.40101743     18421.214      349.50257     -4.3577412     -1496.9799     -1195.7829     -2343.2603      0              0            
    145000   2756.1213      412.02899      2344.0923      303.79602      938.97239      0.40101743     18421.214      366.07447     -4.3577412     -1481.0551     -1192.7824     -2307.763       0              0            
    146000   2784.7037      406.49731      2378.2064      299.71741     -303.87742      0.40101743     18421.214      335.45399     -4.3577412     -1494.0322     -1193.7531     -2352.3313      0              0            
    147000   2743.1285      404.79141      2338.3371      298.45963      2068.3939      0.40101743     18421.214      363.63084     -4.3577412     -1486.3314     -1194.6044     -2317.305       0              0            
    148000   2723.4517      389.47081      2333.9809      287.16349     -1897.6169      0.40101743     18421.214      334.80545     -4.3577412     -1484.8852     -1194.5371     -2344.6169      0              0            
    149000   2784.0533      423.16189      2360.8914      312.00449     -293.8543       0.40101743     18421.214      345.68699     -4.3577412     -1499.3095     -1195.788      -2349.4106      0              0            
    150000   2752.7002      422.09244      2330.6077      311.21597      297.90729      0.40101743     18421.214      336.28726     -4.3577412     -1484.7662     -1193.3754     -2341.8543      0              0            
    151000   2785.0819      408.88487      2376.197       301.4778      -328.84184      0.40101743     18421.214      331.33981     -4.3577412     -1475.0379     -1192.6074     -2336.3055      0              0            
    152000   2790.401       436.20444      2354.1966      321.62099     -606.55002      0.40101743     18421.214      343.16627     -4.3577412     -1489.953      -1194.9861     -2341.7729      0              0            
    153000   2757.2951      416.13214      2341.163       306.82134     -1050.233       0.40101743     18421.214      332.17441     -4.3577412     -1497.4478     -1192.9533     -2358.2266      0              0            
    154000   2732.942       412.59087      2320.3511      304.2103       1722.8587      0.40101743     18421.214      365.99791     -4.3577412     -1478.4662     -1194.4502     -2306.9185      0              0            
    155000   2764.8392      414.32532      2350.5139      305.48914      348.57853      0.40101743     18421.214      350.96893     -4.3577412     -1498.1011     -1194.1631     -2341.2952      0              0            
    156000   2794.4975      426.14323      2368.3543      314.20269     -1796.0197      0.40101743     18421.214      342.30166     -4.3577412     -1491.8932     -1195.2771     -2344.8686      0              0            
    157000   2757.1238      411.22613      2345.8977      303.20406      862.3924       0.40101743     18421.214      363.88867     -4.3577412     -1472.7556     -1194.7999     -2303.6669      0              0            
    158000   2747.1921      390.67913      2356.513       288.0544       853.58209      0.40101743     18421.214      361.47404     -4.3577412     -1499.8584     -1194.295      -2332.6794      0              0            
    159000   2764.7191      424.51786      2340.2012      313.00427      786.72044      0.40101743     18421.214      356.87759     -4.3577412     -1506.9256     -1195.5628     -2345.6108      0              0            
    160000   2724.3798      395.67139      2328.7084      291.73528      1111.3596      0.40101743     18421.214      353.55405     -4.3577412     -1493.0731     -1193.5205     -2333.0396      0              0            
    161000   2708.1492      388.89741      2319.2518      286.74071     -482.84656      0.40101743     18421.214      335.30161     -4.3577412     -1492.1024     -1194.4743     -2351.2751      0              0            
    162000   2747.4054      380.20719      2367.1982      280.33326     -607.45019      0.40101743     18421.214      340.69384     -4.3577412     -1492.7005     -1194.4725     -2346.4791      0              0            
    163000   2744.9255      400.6193       2344.3062      295.38346     -1731.8396      0.40101743     18421.214      333.10641     -4.3577412     -1469.8593     -1194.2081     -2330.961       0              0            
    164000   2731.231       408.26117      2322.9698      301.01794      768.79072      0.40101743     18421.214      352.76369     -4.3577412     -1517.7397     -1195.3134     -2360.2894      0              0            
    165000   2746.538       434.47301      2312.065       320.34438     -237.02468      0.40101743     18421.214      347.93983     -4.3577412     -1488.3849     -1195.3046     -2335.7497      0              0            
    166000   2748.5034      382.88125      2365.6221      282.30489      1309.2683      0.40101743     18421.214      363.35987     -4.3577412     -1492.3784     -1192.7102     -2321.7287      0              0            
    167000   2795.1869      424.53462      2370.6523      313.01663      17.82493       0.40101743     18421.214      358.38303     -4.3577412     -1495.4989     -1193.5225     -2330.6383      0              0            
    168000   2767.6155      411.06631      2356.5491      303.08622      173.83945      0.40101743     18421.214      335.39419     -4.3577412     -1490.9455     -1193.8173     -2349.3686      0              0            
    169000   2707.3589      370.02285      2337.336       272.82417      39.085703      0.40101743     18421.214      341.95872     -4.3577412     -1484.5753     -1194.7809     -2337.3974      0              0            
    170000   2756.1872      413.48927      2342.698       304.8727       947.45999      0.40101743     18421.214      355.03181     -4.3577412     -1489.6411     -1194.191      -2328.8003      0              0            
    171000   2765.4127      410.13798      2355.2748      302.40174     -322.77471      0.40101743     18421.214      350.15347     -4.3577412     -1492.9118     -1197.1262     -2339.8845      0              0            
    172000   2744.0928      389.04712      2355.0457      286.85109      846.76012      0.40101743     18421.214      355.22899     -4.3577412     -1485.4175     -1193.2196     -2323.4081      0              0            
    173000   2702.8412      381.6411       2321.2001      281.39051     -638.86594      0.40101743     18421.214      345.92409     -4.3577412     -1491.3116     -1193.7935     -2339.181       0              0            
    174000   2727.7955      390.04574      2337.7497      287.58739      274.21257      0.40101743     18421.214      352.79105     -4.3577412     -1495.4668     -1195.305      -2337.9808      0              0            
    175000   2755.4659      414.2566       2341.2093      305.43847      831.71483      0.40101743     18421.214      355.62722     -4.3577412     -1488.2772     -1196.0314     -2328.6814      0              0            
    176000   2733.7058      379.32152      2354.3842      279.68024      317.05979      0.40101743     18421.214      368.8279      -4.3577412     -1494.5129     -1195.0174     -2320.7024      0              0            
    177000   2749.3357      408.45277      2340.883       301.15921     -1657.376       0.40101743     18421.214      338.01999     -4.3577412     -1489.8353     -1195.1022     -2346.9175      0              0            
    178000   2792.3015      429.34933      2362.9522      316.5666      -1320.7094      0.40101743     18421.214      342.99459     -4.3577412     -1494.8771     -1195.2136     -2347.0961      0              0            
    179000   2732.9419      405.46781      2327.4741      298.95835     -617.20092      0.40101743     18421.214      351.82121     -4.3577412     -1486.7802     -1195.4142     -2330.3733      0              0            
    180000   2738.8565      404.32668      2334.5298      298.11697      376.8656       0.40101743     18421.214      336.19211     -4.3577412     -1481.0445     -1193.3967     -2338.2491      0              0            
    181000   2767.4297      415.88391      2351.5458      306.63832      410.35574      0.40101743     18421.214      353.61269     -4.3577412     -1490.2753     -1194.0332     -2330.6958      0              0            
    182000   2740.5235      409.91619      2330.6073      302.23821      189.32009      0.40101743     18421.214      346.30736     -4.3577412     -1486.6488     -1193.5836     -2333.9251      0              0            
    183000   2733.1803      396.1657       2337.0146      292.09974      1063.8291      0.40101743     18421.214      350.30885     -4.3577412     -1494.8749     -1194.1674     -2338.7335      0              0            
    184000   2791.6768      431.68476      2359.992       318.28855      60.373558      0.40101743     18421.214      342.2206      -4.3577412     -1482.1659     -1195.6171     -2335.5624      0              0            
    185000   2762.0115      418.85377      2343.1577      308.82805     -91.043229      0.40101743     18421.214      346.88794     -4.3577412     -1484.3409     -1195.6757     -2333.1287      0              0            
    186000   2765.673       432.58578      2333.0872      318.95289      1715.7741      0.40101743     18421.214      361.7552      -4.3577412     -1484.9325     -1195.0319     -2318.2092      0              0            
    187000   2762.5749      422.17546      2340.3995      311.27719      2289.8744      0.40101743     18421.214      368.14082     -4.3577412     -1491.5787     -1195.0352     -2318.4731      0              0            
    188000   2742.8977      407.09819      2335.7995      300.16045     -176.29387      0.40101743     18421.214      339.35642     -4.3577412     -1490.1803     -1194.4609     -2345.2848      0              0            
    189000   2740.7247      406.89974      2333.825       300.01413      1159.0024      0.40101743     18421.214      337.66466     -4.3577412     -1492.4447     -1194.415      -2349.195       0              0            
    190000   2756.9563      414.29236      2342.6639      305.46484     -668.08234      0.40101743     18421.214      345.80462     -4.3577412     -1510.7995     -1195.9626     -2360.9574      0              0            
    191000   2772.6026      428.2407       2344.3619      315.74919      83.733968      0.40101743     18421.214      356.89597     -4.3577412     -1494.3395     -1193.8239     -2331.2674      0              0            
    192000   2748.1783      380.11985      2368.0585      280.26887     -258.71599      0.40101743     18421.214      338.26287     -4.3577412     -1496.8742     -1194.5573     -2353.1687      0              0            
    193000   2751.8127      417.92811      2333.8846      308.14554      50.258952      0.40101743     18421.214      348.18864     -4.3577412     -1496.2828     -1193.8747     -2341.9689      0              0            
    194000   2757.0849      405.78899      2351.2959      299.19516     -462.62118      0.40101743     18421.214      357.30569     -4.3577412     -1478.5381     -1196.0891     -2317.3215      0              0            
    195000   2771.4071      431.57647      2339.8307      318.20871      4.7403061      0.40101743     18421.214      333.48006     -4.3577412     -1493.0842     -1196.258      -2355.8621      0              0            
    196000   2779.7777      446.24817      2333.5296      329.0264       775.88874      0.40101743     18421.214      351.08881     -4.3577412     -1465.6071     -1194.0162     -2308.5345      0              0            
    197000   2755.5794      411.9001       2343.6793      303.70099      547.78489      0.40101743     18421.214      354.99157     -4.3577412     -1476.7658     -1194.3746     -2316.1488      0              0            
    198000   2765.817       408.49661      2357.3203      301.19153     -1453.2909      0.40101743     18421.214      325.27999     -4.3577412     -1492.3126     -1193.4077     -2360.4403      0              0            
    199000   2737.3724      389.47713      2347.8953      287.16815      857.74481      0.40101743     18421.214      359.00826     -4.3577412     -1470.2535     -1194.5565     -2305.8018      0              0            
    200000   2775.7605      416.99586      2358.7647      307.45818      965.0117       0.40101743     18421.214      334.17836     -4.3577412     -1494.8456     -1194.0664     -2354.7336      0              0            
    201000   2742.4454      413.50296      2328.9425      304.8828       830.29239      0.40101743     18421.214      360.12041     -4.3577412     -1476.3271     -1194.2641     -2310.4708      0              0            
    202000   2746.6446      407.93209      2338.7125      300.7753       729.9869       0.40101743     18421.214      352.24475     -4.3577412     -1499.4473     -1195.1248     -2342.3274      0              0            
    203000   2777.7845      409.0682       2368.7163      301.61298      1400.8397      0.40101743     18421.214      350.44463     -4.3577412     -1490.7264     -1193.9572     -2334.239       0              0            
    204000   2776.5423      424.22103      2352.3213      312.78542     -1643.0588      0.40101743     18421.214      334.07475     -4.3577412     -1485.6725     -1194.1582     -2345.756       0              0            
    205000   2724.1         392.00124      2332.0988      289.02921      586.02782      0.40101743     18421.214      343.1139      -4.3577412     -1478.6746     -1193.8938     -2329.4545      0              0            
    206000   2756.9725      411.38664      2345.5859      303.3224       739.64693      0.40101743     18421.214      366.96609     -4.3577412     -1487.7269     -1194.3757     -2315.1365      0              0            
    207000   2769.6025      413.17901      2356.4235      304.64395     -163.66194      0.40101743     18421.214      343.27844     -4.3577412     -1480.1421     -1193.1562     -2330.0199      0              0            
    208000   2721.4568      397.18377      2324.2731      292.85038     -425.95797      0.40101743     18421.214      353.81808     -4.3577412     -1491.4529     -1196.021      -2333.6558      0              0            
    209000   2734.8905      396.59689      2338.2936      292.41766     -463.40159      0.40101743     18421.214      343.40462     -4.3577412     -1501.3184     -1194.3402     -2352.254       0              0            
    210000   2743.9323      410.24059      2333.6918      302.4774       185.57804      0.40101743     18421.214      343.16681     -4.3577412     -1488.9826     -1193.4826     -2339.2983      0              0            
    211000   2811.8924      436.31304      2375.5794      321.70106     -398.69453      0.40101743     18421.214      331.57688     -4.3577412     -1492.7183     -1195.147      -2356.2885      0              0            
    212000   2777.0467      421.32024      2355.7264      310.64661      527.27441      0.40101743     18421.214      334.01274     -4.3577412     -1483.1068     -1194.1519     -2343.2459      0              0            
    213000   2713.8401      386.47159      2327.3685      284.95211      1115.4887      0.40101743     18421.214      356.09564     -4.3577412     -1487.8425     -1194.249      -2325.9959      0              0            
    214000   2765.082       417.47854      2347.6034      307.81407      800.87474      0.40101743     18421.214      346.33897     -4.3577412     -1502.2031     -1194.3489     -2350.213       0              0            
    215000   2734.393       403.64373      2330.7492      297.61342     -87.410218      0.40101743     18421.214      343.2184      -4.3577412     -1494.1925     -1194.6762     -2345.6504      0              0            
    216000   2741.7204      380.07172      2361.6486      280.23338     -648.83401      0.40101743     18421.214      349.00058     -4.3577412     -1492.0718     -1194.8132     -2337.8845      0              0            
    217000   2776.0833      430.35663      2345.7266      317.3093       953.94758      0.40101743     18421.214      356.20141     -4.3577412     -1482.8949     -1192.6243     -2319.3177      0              0            
    218000   2750.5076      392.9362       2357.5714      289.71858      945.56455      0.40101743     18421.214      356.12664     -4.3577412     -1501.2483     -1195.0588     -2340.1805      0              0            
    219000   2775.3017      409.22787      2366.0739      301.7307      -568.37398      0.40101743     18421.214      351.95172     -4.3577412     -1487.085      -1193.4515     -2328.5848      0              0            
    220000   2752.4913      411.99702      2340.4943      303.77245      86.936686      0.40101743     18421.214      345.71423     -4.3577412     -1496.7778     -1194.5966     -2345.6602      0              0            
    221000   2770.5212      416.0408       2354.4804      306.75399      802.74082      0.40101743     18421.214      343.66879     -4.3577412     -1492.1864     -1194.4577     -2342.9753      0              0            
    222000   2753.7336      423.49411      2330.2395      312.24944     -1097.5294      0.40101743     18421.214      323.14346     -4.3577412     -1475.6745     -1192.9876     -2345.5186      0              0            
    223000   2742.1965      415.56746      2326.629       306.40499     -274.51688      0.40101743     18421.214      335.00729     -4.3577412     -1498.8932     -1196.016      -2359.902       0              0            
    224000   2771.2966      428.32113      2342.9755      315.80849      363.79601      0.40101743     18421.214      357.01667     -4.3577412     -1497.0772     -1195.9355     -2335.996       0              0            
    225000   2731.1709      411.69685      2319.474       303.55112      2.521626       0.40101743     18421.214      344.5263      -4.3577412     -1483.3836     -1194.5617     -2333.419       0              0            
    226000   2716.1618      380.04425      2336.1176      280.21312     -713.59045      0.40101743     18421.214      346.35026     -4.3577412     -1478.6563     -1193.9731     -2326.2791      0              0            
    227000   2732.114       382.08998      2350.0241      281.72147     -557.0335       0.40101743     18421.214      338.38018     -4.3577412     -1493.0613     -1194.8422     -2349.5233      0              0            
    228000   2739.9158      408.44066      2331.4752      301.15028     -287.04721      0.40101743     18421.214      341.86818     -4.3577412     -1504.7215     -1194.1102     -2356.9635      0              0            
    229000   2753.0171      413.45194      2339.5652      304.84518      42.901314      0.40101743     18421.214      346.37562     -4.3577412     -1471.0532     -1193.7954     -2318.473       0              0            
    230000   2740.6799      390.39663      2350.2833      287.84611     -144.25217      0.40101743     18421.214      340.25486     -4.3577412     -1490.3037     -1194.7273     -2344.7761      0              0            
    231000   2738.9611      396.82675      2342.1343      292.58715     -317.82039      0.40101743     18421.214      342.35772     -4.3577412     -1488.4448     -1193.4064     -2339.4935      0              0            
    232000   2735.2608      397.14789      2338.1129      292.82393     -241.55887      0.40101743     18421.214      351.01674     -4.3577412     -1487.025      -1193.956      -2329.9643      0              0            
    233000   2772.4543      396.92943      2375.5249      292.66285      357.23677      0.40101743     18421.214      354.01174     -4.3577412     -1491.9705     -1194.4309     -2332.3896      0              0            
    234000   2752.7814      405.82556      2346.9558      299.22212      1021.2903      0.40101743     18421.214      345.34341     -4.3577412     -1481.0603     -1192.8281     -2328.545       0              0            
    235000   2798.5456      421.03607      2377.5095      310.43709     -51.859724      0.40101743     18421.214      348.4715      -4.3577412     -1483.2208     -1194.4951     -2329.2444      0              0            
    236000   2721.6948      397.67229      2324.0225      293.21057      128.78974      0.40101743     18421.214      343.59779     -4.3577412     -1500.6136     -1194.0953     -2351.1111      0              0            
    237000   2780.5812      436.54185      2344.0394      321.86977      1067.8215      0.40101743     18421.214      348.73432     -4.3577412     -1491.6308     -1195.8744     -2338.7708      0              0            
    238000   2775.7293      432.6239       2343.1054      318.98099      1262.6663      0.40101743     18421.214      347.73245     -4.3577412     -1486.6049     -1194.8435     -2333.7159      0              0            
    239000   2758.88        411.94048      2346.9395      303.73075      199.01054      0.40101743     18421.214      346.68005     -4.3577412     -1481.6472     -1194.1017     -2329.0688      0              0            
    240000   2775.6078      411.23004      2364.3778      303.20693     -1131.4021      0.40101743     18421.214      337.53304     -4.3577412     -1478.1617     -1193.7475     -2334.3762      0              0            
    241000   2747.2695      393.96348      2353.306       290.47601     -768.09427      0.40101743     18421.214      339.37336     -4.3577412     -1478.5907     -1195.0244     -2334.2416      0              0            
    242000   2754.3971      400.39862      2353.9985      295.22075      130.6311       0.40101743     18421.214      352.82753     -4.3577412     -1495.3391     -1193.7409     -2336.2525      0              0            
    243000   2751.7508      408.60563      2343.1452      301.27191     -686.11023      0.40101743     18421.214      339.78887     -4.3577412     -1491.2715     -1194.8899     -2346.3726      0              0            
    244000   2783.515       433.11875      2350.3963      319.34586     -969.64342      0.40101743     18421.214      341.13552     -4.3577412     -1475.0878     -1193.9424     -2327.8947      0              0            
    245000   2809.3225      448.43613      2360.8864      330.63963     -293.24103      0.40101743     18421.214      340.97436     -4.3577412     -1491.8297     -1194.0278     -2344.8831      0              0            
    246000   2749.0543      403.21232      2345.842       297.29533      1831.1121      0.40101743     18421.214      365.89727     -4.3577412     -1488.2209     -1194.5014     -2316.825       0              0            
    247000   2778.9629      415.84402      2363.1188      306.6089       21.70018       0.40101743     18421.214      341.33585     -4.3577412     -1501.3713     -1194.9798     -2355.0153      0              0            
    248000   2766.2532      420.0693       2346.1839      309.72428     -431.2768       0.40101743     18421.214      341.22487     -4.3577412     -1490.0435     -1194.8977     -2343.7163      0              0            
    249000   2758.1205      407.21197      2350.9086      300.24435     -566.66853      0.40101743     18421.214      337.07902     -4.3577412     -1476.3495     -1194.5237     -2333.7941      0              0            
    250000   2788.7955      402.20399      2386.5915      296.55188      725.59991      0.40101743     18421.214      370.0132      -4.3577412     -1486.9983     -1192.8673     -2309.8524      0              0            
    251000   2760.0916      434.84874      2325.2429      320.62141     -1006.5355      0.40101743     18421.214      352.36129     -4.3577412     -1495.2316     -1195.4074     -2338.2777      0              0            
    252000   2705.9646      387.96527      2317.9993      286.05342     -920.60006      0.40101743     18421.214      331.05758     -4.3577412     -1479.2295     -1195.2464     -2343.4184      0              0            
    253000   2736.6804      403.3493       2333.3311      297.39633     -534.12412      0.40101743     18421.214      353.48982     -4.3577412     -1478.8081     -1195.366      -2320.6842      0              0            
    254000   2799.9108      427.57829      2372.3325      315.26078      1682.5489      0.40101743     18421.214      361.1377      -4.3577412     -1482.4906     -1194.3636     -2315.7165      0              0            
    255000   2761.407       403.53391      2357.8731      297.53245     -197.9733       0.40101743     18421.214      333.63131     -4.3577412     -1492.6425     -1195.3259     -2354.3371      0              0            
    256000   2784.4679      422.11729      2362.3506      311.23429     -1322.4747      0.40101743     18421.214      345.85402     -4.3577412     -1482.5279     -1192.2269     -2328.9008      0              0            
    257000   2743.4893      409.28775      2334.2016      301.77485      427.44345      0.40101743     18421.214      350.45009     -4.3577412     -1501.6686     -1195.4965     -2346.715       0              0            
    258000   2760.8796      392.6711       2368.2085      289.52311     -410.55481      0.40101743     18421.214      348.37331     -4.3577412     -1503.9532     -1194.7843     -2350.3642      0              0            
    259000   2777.609       406.80807      2370.8009      299.94654     -2460.0557      0.40101743     18421.214      323.06151     -4.3577412     -1485.7184     -1195.7232     -2358.38        0              0            
    260000   2778.1159      421.60285      2356.513       310.85498      684.60632      0.40101743     18421.214      361.92068     -4.3577412     -1490.6467     -1195.1843     -2323.9103      0              0            
    261000   2706.2311      376.29387      2329.9372      277.4479       660.74126      0.40101743     18421.214      365.01823     -4.3577412     -1493.1208     -1193.4072     -2321.5098      0              0            
    262000   2729.0053      378.92411      2350.0811      279.38722      1962.0976      0.40101743     18421.214      362.89597     -4.3577412     -1492.749      -1195.0592     -2324.9123      0              0            
    263000   2727.4141      392.18706      2335.2271      289.16622      1371.6967      0.40101743     18421.214      345.75409     -4.3577412     -1489.4077     -1194.0175     -2337.6711      0              0            
    264000   2727.7006      400.3043       2327.3963      295.1512      -761.07515      0.40101743     18421.214      346.58384     -4.3577412     -1503.6759     -1195.6594     -2352.7514      0              0            
    265000   2747.5403      402.98474      2344.5556      297.12753     -294.62448      0.40101743     18421.214      335.12211     -4.3577412     -1475.0868     -1192.0354     -2332.0001      0              0            
    266000   2758.2759      412.32262      2345.9533      304.01251      234.40851      0.40101743     18421.214      338.58592     -4.3577412     -1478.8902     -1193.5357     -2333.84        0              0            
    267000   2792.0654      432.93897      2359.1264      319.2133      -111.41418      0.40101743     18421.214      341.1042      -4.3577412     -1473.798      -1193.7201     -2326.4139      0              0            
    268000   2731.6326      401.91698      2329.7156      296.34026      476.46223      0.40101743     18421.214      342.16445     -4.3577412     -1484.4873     -1194.6136     -2336.9364      0              0            
    269000   2772.7744      438.98251      2333.7919      323.6693       734.94817      0.40101743     18421.214      348.80045     -4.3577412     -1487.0176     -1193.7821     -2331.9993      0              0            
    270000   2716.612       414.13931      2302.4727      305.35199     -1123.7718      0.40101743     18421.214      334.27683     -4.3577412     -1493.3295     -1194.1109     -2353.1635      0              0            
    271000   2709.4566      396.51062      2312.946       292.35406      267.90582      0.40101743     18421.214      348.90612     -4.3577412     -1490.4244     -1193.2472     -2334.7655      0              0            
    272000   2783.3512      418.60884      2364.7424      308.64745      835.98053      0.40101743     18421.214      355.19825     -4.3577412     -1478.0867     -1194.0237     -2316.9122      0              0            
    273000   2742.7874      410.6906       2332.0968      302.8092      -2425.1235      0.40101743     18421.214      316.32232     -4.3577412     -1493.0085     -1193.4697     -2370.1559      0              0            
    274000   2731.3016      397.45164      2333.85        293.04789     -181.11947      0.40101743     18421.214      340.09211     -4.3577412     -1478.4556     -1193.7324     -2332.0959      0              0            
    275000   2760.4006      419.61478      2340.7858      309.38915     -1212.0924      0.40101743     18421.214      343.69416     -4.3577412     -1495.5399     -1193.404      -2345.2497      0              0            
    276000   2781.4807      435.44635      2346.0344      321.06204      1969.2303      0.40101743     18421.214      373.17412     -4.3577412     -1477.8183     -1194.3273     -2298.9715      0              0            
    277000   2793.8572      420.68997      2373.1672      310.18191     -1267.4236      0.40101743     18421.214      345.92181     -4.3577412     -1505.2941     -1193.7698     -2353.1421      0              0            
    278000   2761.961       410.8111       2351.1499      302.89805      235.83702      0.40101743     18421.214      361.17272     -4.3577412     -1492.8994     -1196.418      -2328.1446      0              0            
    279000   2744.7155      403.35477      2341.3607      297.40037      207.78205      0.40101743     18421.214      351.93074     -4.3577412     -1483.8242     -1194.7064     -2326.5999      0              0            
    280000   2738.3669      405.83172      2332.5352      299.22666      456.4423       0.40101743     18421.214      361.34703     -4.3577412     -1471.2314     -1195.0541     -2304.9385      0              0            
    281000   2735.6286      400.94987      2334.6787      295.62719     -394.3052       0.40101743     18421.214      337.30505     -4.3577412     -1481.4093     -1194.9625     -2339.0668      0              0            
    282000   2802.6401      426.54789      2376.0922      314.50105      275.44136      0.40101743     18421.214      355.93855     -4.3577412     -1464.349      -1194.9833     -2303.3938      0              0            
    283000   2744.902       397.27411      2347.6279      292.91699     -1071.6849      0.40101743     18421.214      344.25082     -4.3577412     -1500.3934     -1194.7417     -2350.8842      0              0            
    284000   2747.6698      418.34903      2329.3208      308.45589      143.29467      0.40101743     18421.214      346.09314     -4.3577412     -1495.3357     -1194.7164     -2343.959       0              0            
    285000   2741.0607      392.9575       2348.1032      289.73428     -2256.7579      0.40101743     18421.214      342.26049     -4.3577412     -1492.4758     -1195.12       -2345.3353      0              0            
    286000   2758.8001      419.724        2339.0761      309.46968      2841.7254      0.40101743     18421.214      372.5027      -4.3577412     -1509.325      -1192.8996     -2329.7219      0              0            
    287000   2725.6432      398.92384      2326.7194      294.13337      1227.1578      0.40101743     18421.214      352.00718     -4.3577412     -1486.3544     -1194.9308     -2329.278       0              0            
    288000   2750.5358      409.72507      2340.8107      302.0973      -886.24393      0.40101743     18421.214      337.22957     -4.3577412     -1482.7672     -1193.5963     -2339.134       0              0            
    289000   2731.5457      403.89837      2327.6473      297.80117     -194.28347      0.40101743     18421.214      345.79231     -4.3577412     -1499.8382     -1194.3623     -2348.4082      0              0            
    290000   2763.9489      425.21689      2338.732       313.51968     -152.92139      0.40101743     18421.214      334.4821      -4.3577412     -1484.4337     -1195.0284     -2344.98        0              0            
    291000   2762.5693      411.48519      2351.0841      303.39506     -1137.1548      0.40101743     18421.214      335.80242     -4.3577412     -1479.487      -1195.4383     -2339.1229      0              0            
    292000   2721.9829      378.02723      2343.9557      278.72594      183.18015      0.40101743     18421.214      350.80326     -4.3577412     -1486.1646     -1193.7056     -2329.0669      0              0            
    293000   2731.4831      407.93951      2323.5436      300.78077      445.9147       0.40101743     18421.214      341.71482     -4.3577412     -1493.0487     -1196.2925     -2347.6264      0              0            
    294000   2756.8881      407.12734      2349.7608      300.18195      905.0483       0.40101743     18421.214      356.62953     -4.3577412     -1498.3572     -1197.8739     -2339.6016      0              0            
    295000   2759.8446      404.00525      2355.8394      297.87998     -1077.4602      0.40101743     18421.214      355.17275     -4.3577412     -1494.14       -1196.6175     -2335.5847      0              0            
    296000   2719.4997      399.81766      2319.6821      294.79239     -18.39056       0.40101743     18421.214      344.70957     -4.3577412     -1493.7963     -1197.8578     -2346.9446      0              0            
    297000   2801.0622      412.47216      2388.59        304.12277     -1076.031       0.40101743     18421.214      350.36868     -4.3577412     -1481.9809     -1195.8308     -2327.443       0              0            
    298000   2731.4659      391.39223      2340.0737      288.58018     -1434.7756      0.40101743     18421.214      325.16097     -4.3577412     -1476.5576     -1195.3486     -2346.7452      0              0            
    299000   2772.3812      407.08937      2365.2918      300.15395     -538.90368      0.40101743     18421.214      349.30918     -4.3577412     -1490.7971     -1194.9448     -2336.4327      0              0            
    300000   2723.9038      411.18219      2312.7216      303.17166      1125.5437      0.40101743     18421.214      357.89322     -4.3577412     -1502.4785     -1196.9818     -2341.5671      0              0            
    301000   2776.7422      449.5617       2327.1805      331.46953     -521.20156      0.40101743     18421.214      347.99988     -4.3577412     -1508.6945     -1198.2118     -2358.9064      0              0            
    302000   2765.2456      414.57168      2350.6739      305.67079     -1394.5608      0.40101743     18421.214      344.01427     -4.3577412     -1491.0302     -1196.1449     -2343.1609      0              0            
    303000   2730.9014      367.86712      2363.0343      271.23472     -892.92468      0.40101743     18421.214      344.67765     -4.3577412     -1489.0476     -1196.3376     -2340.7075      0              0            
    304000   2759.5318      414.52602      2345.0057      305.63712     -828.26404      0.40101743     18421.214      347.25505     -4.3577412     -1480.0308     -1197.5211     -2330.2969      0              0            
    305000   2739.695       391.25987      2348.4351      288.48259     -378.011        0.40101743     18421.214      346.35793     -4.3577412     -1489.672      -1197.3403     -2340.6544      0              0            
    306000   2760.4438      400.85         2359.5938      295.55356     -277.68761      0.40101743     18421.214      348.03699     -4.3577412     -1488.6837     -1196.1587     -2336.8054      0              0            
    307000   2751.9742      409.7978       2342.1764      302.15092      1626.6163      0.40101743     18421.214      358.12515     -4.3577412     -1487.665      -1196.602      -2326.1419      0              0            
    308000   2765.2371      412.35085      2352.8863      304.03333      925.7714       0.40101743     18421.214      354.01298     -4.3577412     -1500.0028     -1196.7704     -2342.7602      0              0            
    309000   2728.7164      397.87233      2330.8441      293.35807      206.80159      0.40101743     18421.214      336.55535     -4.3577412     -1490.8874     -1195.7581     -2350.0901      0              0            
    310000   2755.0631      407.51431      2347.5488      300.46727     -904.11534      0.40101743     18421.214      354.3342      -4.3577412     -1476.4101     -1197.9652     -2320.0411      0              0            
    311000   2737.2363      397.41823      2339.818       293.02326      75.911408      0.40101743     18421.214      353.90688     -4.3577412     -1496.857      -1198.108      -2341.0582      0              0            
    312000   2760.0941      417.61991      2342.4742      307.91829      1695.1253      0.40101743     18421.214      357.16612     -4.3577412     -1496.2157     -1195.4773     -2334.527       0              0            
    313000   2777.3663      423.51862      2353.8476      312.26752     -295.49611      0.40101743     18421.214      343.17512     -4.3577412     -1497.9005     -1196.5142     -2351.2396      0              0            
    314000   2752.3138      389.85395      2362.4599      287.44598     -562.05987      0.40101743     18421.214      337.07294     -4.3577412     -1475.7203     -1197.2283     -2335.8757      0              0            
    315000   2747.6664      430.49724      2317.1692      317.41298     -677.02307      0.40101743     18421.214      355.20022     -4.3577412     -1486.8977     -1198.1884     -2329.8859      0              0            
    316000   2748.461       414.90779      2333.5532      305.9186      -804.92496      0.40101743     18421.214      349.23617     -4.3577412     -1506.6089     -1198.1059     -2355.4787      0              0            
    317000   2720.7191      406.28266      2314.4364      299.55915      745.87955      0.40101743     18421.214      351.81224     -4.3577412     -1497.7314     -1196.4767     -2342.3958      0              0            
    318000   2777.6034      432.04513      2345.5583      318.55426     -41.911932      0.40101743     18421.214      361.10037     -4.3577412     -1504.7858     -1197.6385     -2341.3239      0              0            
    319000   2754.3747      407.79843      2346.5762      300.67675     -708.67396      0.40101743     18421.214      342.59067     -4.3577412     -1487.3023     -1198.1695     -2342.8812      0              0            
    320000   2756.105       414.38375      2341.7213      305.53222      489.81086      0.40101743     18421.214      331.9046      -4.3577412     -1477.4799     -1196.1663     -2341.7417      0              0            
    321000   2799.0182      443.98559      2355.0326      327.35816      892.4495       0.40101743     18421.214      338.71799     -4.3577412     -1499.3321     -1197.7332     -2358.3473      0              0            
    322000   2754.7466      409.54187      2345.2048      301.96222      139.89017      0.40101743     18421.214      351.02317     -4.3577412     -1484.5488     -1195.9578     -2329.4835      0              0            
    323000   2730.7223      414.45315      2316.2692      305.58339      257.82208      0.40101743     18421.214      330.11516     -4.3577412     -1501.382      -1197.3226     -2368.5894      0              0            
    324000   2748.5659      427.61052      2320.9554      315.28454      188.66291      0.40101743     18421.214      341.4343      -4.3577412     -1483.0246     -1198.2664     -2339.8567      0              0            
    325000   2725.278       410.30192      2314.9761      302.52262     -1133.8813      0.40101743     18421.214      348.02692     -4.3577412     -1491.7235     -1197          -2340.6965      0              0            
[...]
   1628000   2704.6628      413.78529      2290.8775      305.09096      586.03661      0.40101743     18421.214      345.54598     -4.3577412     -1490.2069     -1197.6138     -2342.2747      38.795611      1.8954057    
   1629000   2708.4881      396.13645      2312.3517      292.07818     -612.76974      0.40101743     18421.214      345.25754     -4.3577412     -1499.9943     -1198.0534     -2352.7901      39.340173      2.4384751    
   1630000   2691.554       386.8645       2304.6895      285.24181      190.18146      0.40101743     18421.214      358.0727      -4.3577412     -1496.8825     -1197.2044     -2336.0142      33.376881      2.3248344    
   1631000   2733.5559      434.0017       2299.5542      319.99687     -597.00608      0.40101743     18421.214      339.19112     -4.3577412     -1508.9633     -1197.351      -2367.1232      40.497786      1.4034102    
   1632000   2750.7651      427.48402      2323.281       315.19128     -627.12078      0.40101743     18421.214      350.52256     -4.3577412     -1494.3401     -1197.1236     -2340.9411      38.832157      1.8473357    
   1633000   2710.1356      419.0818       2291.0538      308.99617     -768.41728      0.40101743     18421.214      337.91445     -4.3577412     -1485.9009     -1196.7777     -2344.7642      36.009895      2.2694742    
   1634000   2680.6099      391.07018      2289.5398      288.34273      433.12803      0.40101743     18421.214      342.36312     -4.3577412     -1499.5624     -1197.3075     -2354.5067      38.899987      1.9769117    
   1635000   2714.3511      426.09532      2288.2558      314.16736      624.93235      0.40101743     18421.214      349.26673     -4.3577412     -1510.7088     -1197.7567     -2359.1988      40.061457      1.8104529    
   1636000   2709.9084      403.41588      2306.4925      297.44542      824.66352      0.40101743     18421.214      362.70177     -4.3577412     -1479.7918     -1197.9833     -2315.0732      42.829982      1.7531426    
   1637000   2706.2687      418.13909      2288.1296      308.3011      -254.52392      0.40101743     18421.214      345.95934     -4.3577412     -1499.7443     -1197.0479     -2350.8328      35.595536      2.099865     
   1638000   2750.9183      435.94235      2314.976       321.42775      1554.5649      0.40101743     18421.214      360.64864     -4.3577412     -1505.7958     -1197.5025     -2342.6497      37.71215       2.0628499    
   1639000   2746.1621      426.43318      2319.7289      314.41647      442.82984      0.40101743     18421.214      338.53437     -4.3577412     -1496.7652     -1196.6484     -2354.8792      36.882796      1.7601274    
   1640000   2733.6209      417.80748      2315.8134      308.0566       1184.6724      0.40101743     18421.214      355.12188     -4.3577412     -1489.4591     -1197.2139     -2331.5511      41.808236      1.7518839    
   1641000   2707.1999      405.05293      2302.1469      298.65245      392.70448      0.40101743     18421.214      351.10468     -4.3577412     -1491.5317     -1196.7575     -2337.1846      36.751051      2.0304001    
   1642000   2695.4698      407.89848      2287.5713      300.75052      229.67143      0.40101743     18421.214      351.93141     -4.3577412     -1483.7823     -1196.2278     -2328.0787      40.505526      1.7642781    
   1643000   2684.835       378.84856      2305.9865      279.33152     -157.98349      0.40101743     18421.214      349.62241     -4.3577412     -1500.0725     -1197.46       -2347.9101      39.354926      2.3485542    
   1644000   2728.7901      425.25485      2303.5352      313.54767     -299.34373      0.40101743     18421.214      331.63777     -4.3577412     -1492.2817     -1197.3795     -2358.0235      38.115333      2.0867454    
   1645000   2702.1317      381.32499      2320.8067      281.15744      696.88089      0.40101743     18421.214      354.47661     -4.3577412     -1486.883      -1197.7014     -2330.1078      40.754076      2.1855866    
   1646000   2708.0152      398.93568      2309.0795      294.1421       545.81817      0.40101743     18421.214      358.13131     -4.3577412     -1499.7711     -1197.3679     -2339.0076      45.633212      2.4413161    
   1647000   2693.4587      404.76993      2288.6888      298.44379      1146.4541      0.40101743     18421.214      368.33183     -4.3577412     -1503.5537     -1197.0596     -2332.2815      34.201794      2.0361951    
   1648000   2717.9006      399.9648       2317.9358      294.90088     -1383.6799      0.40101743     18421.214      336.33272     -4.3577412     -1491.8855     -1197.4658     -2353.0185      51.101689      1.9791347    
   1649000   2735.6007      439.9388       2295.6619      324.3744      -673.91632      0.40101743     18421.214      343.23877     -4.3577412     -1506.1234     -1198.7668     -2361.6514      36.989413      2.2099232    
   1650000   2716.0934      391.49113      2324.6023      288.6531      -669.76967      0.40101743     18421.214      347.65697     -4.3577412     -1502.2196     -1197.7458     -2352.3084      40.907891      1.5905318    
   1651000   2719.3693      423.77292      2295.5964      312.45502      277.83669      0.40101743     18421.214      355.05138     -4.3577412     -1494.1437     -1197.7484     -2336.8408      30.379896      2.4069242    
   1652000   2683.5557      375.24537      2308.3104      276.67482     -624.9809       0.40101743     18421.214      348.61488     -4.3577412     -1491.844      -1195.1624     -2338.3915      46.909213      2.4236485    
   1653000   2715.7719      408.90012      2306.8718      301.48905      854.44137      0.40101743     18421.214      355.57326     -4.3577412     -1481.6439     -1196.6831     -2322.7537      38.148667      2.2450018    
   1654000   2696.5762      402.18173      2294.3944      296.53546     -251.97379      0.40101743     18421.214      345.61648     -4.3577412     -1495.1139     -1196.353      -2345.8504      40.553141      1.7534235    
   1655000   2718.9777      392.13987      2326.8378      289.13143     -189.04973      0.40101743     18421.214      352.33139     -4.3577412     -1493.7401     -1196.1853     -2337.594       38.144932      2.0695341    
   1656000   2737.9802      409.23586      2328.7443      301.7366       751.78507      0.40101743     18421.214      356.50651     -4.3577412     -1508.2397     -1197.2949     -2349.0281      33.996408      1.7721552    
   1657000   2728.7256      408.07945      2320.6461      300.88395      175.79422      0.40101743     18421.214      349.93986     -4.3577412     -1492.0332     -1197.3563     -2339.4496      39.073728      2.1338176    
   1658000   2731.4815      430.22956      2301.2519      317.21561     -325.53851      0.40101743     18421.214      343.02863     -4.3577412     -1487.8608     -1197.6672     -2342.4993      40.481309      2.0711137    
   1659000   2737.5009      430.09542      2307.4055      317.1167       450.29184      0.40101743     18421.214      354.73975     -4.3577412     -1487.4003     -1197.3612     -2330.0217      40.213751      2.2425226    
   1660000   2703.1084      415.4802       2287.6282      306.34065     -303.68458      0.40101743     18421.214      333.01292     -4.3577412     -1485.6069     -1196.3844     -2348.9784      33.4277        2.134387     
   1661000   2736.4085      435.70877      2300.6998      321.25552     -1242.603       0.40101743     18421.214      346.19553     -4.3577412     -1491.9811     -1196.9939     -2342.7794      34.875383      1.8821993    
   1662000   2734.442       401.72487      2332.7171      296.19861      795.9766       0.40101743     18421.214      349.7103      -4.3577412     -1493.4554     -1196.6496     -2340.3946      38.482249      2.0070626    
   1663000   2701.7923      396.36489      2305.4274      292.24661     -96.17765       0.40101743     18421.214      346.67583     -4.3577412     -1495.0396     -1196.8735     -2345.2372      37.426129      1.7971759    
   1664000   2732.3226      428.09199      2304.2306      315.63954     -322.8          0.40101743     18421.214      353.34334     -4.3577412     -1498.0017     -1198.0804     -2342.7387      37.450172      2.4716946    
   1665000   2686.7578      384.89081      2301.867       283.78657      1125.2116      0.40101743     18421.214      351.79352     -4.3577412     -1511.1824     -1196.2936     -2355.6826      37.546862      2.2630972    
   1666000   2714.9591      404.44676      2310.5123      298.20551     -196.86682      0.40101743     18421.214      345.5046      -4.3577412     -1502.8663     -1197.602      -2354.9637      31.827972      1.7485148    
   1667000   2692.5137      414.36937      2278.1443      305.52162      631.23267      0.40101743     18421.214      348.0599      -4.3577412     -1499.1238     -1198.0688     -2349.1327      35.42364       2.0747704    
   1668000   2720.6478      399.33009      2321.3178      294.4329      -527.13762      0.40101743     18421.214      351.30898     -4.3577412     -1503.5176     -1197.5677     -2349.7763      38.489934      1.9224359    
   1669000   2738.2847      425.69038      2312.5944      313.86879      467.17079      0.40101743     18421.214      339.25612     -4.3577412     -1499.5399     -1196.5363     -2356.8201      33.00815       2.3939651    
   1670000   2682.0259      388.45697      2293.569       286.41596      162.59397      0.40101743     18421.214      354.9887      -4.3577412     -1499.2387     -1196.4708     -2340.7207      39.219418      2.3893662    
   1671000   2715.3491      398.94423      2316.4049      294.1484      -159.3189       0.40101743     18421.214      356.00035     -4.3577412     -1485.9722     -1197.6901     -2327.6619      38.089191      2.0826832    
   1672000   2729.1746      426.5156       2302.659       314.47724     -489.59701      0.40101743     18421.214      345.28537     -4.3577412     -1482.9395     -1197.2941     -2334.9482      39.134075      1.7631034    
   1673000   2742.4682      403.6546       2338.8136      297.62144      110.91847      0.40101743     18421.214      349.96066     -4.3577412     -1502.4327     -1197.0175     -2349.4895      45.080542      2.1686146    
   1674000   2726.3596      421.75028      2304.6093      310.96369     -13.739839      0.40101743     18421.214      344.77286     -4.3577412     -1494.939      -1198.0534     -2348.2195      36.010493      2.2908276    
   1675000   2722.5277      399.75228      2322.7754      294.74419     -905.01528      0.40101743     18421.214      343.85454     -4.3577412     -1500.0993     -1195.7192     -2351.9639      37.943435      1.9363553    
   1676000   2747.4748      403.71838      2343.7565      297.66846     -9.5441398      0.40101743     18421.214      357.68638     -4.3577412     -1506.3408     -1196.0628     -2344.7172      46.718586      1.9024357    
   1677000   2720.1501      423.31558      2296.8345      312.11781      723.83921      0.40101743     18421.214      352.29252     -4.3577412     -1490.5392     -1197.0679     -2335.3146      42.540878      1.6784836    
   1678000   2700.6995      392.57492      2308.1246      289.4522      -1318.8537      0.40101743     18421.214      332.78632     -4.3577412     -1479.8562     -1196.8724     -2343.9423      41.220516      1.7715243    
   1679000   2730.2275      427.29225      2302.9352      315.04988     -1283.6714      0.40101743     18421.214      343.45983     -4.3577412     -1502.3376     -1197.8186     -2356.6965      34.611001      2.2401943    
   1680000   2712.765       414.30106      2298.4639      305.47126      328.69798      0.40101743     18421.214      348.05582     -4.3577412     -1501.2981     -1196.7903     -2350.0326      40.659305      1.7152904    
   1681000   2723.3967      419.18448      2304.2122      309.07188     -777.17072      0.40101743     18421.214      351.47685     -4.3577412     -1501.8844     -1196.9201     -2347.3277      38.56519       1.5323813    
   1682000   2720.5589      410.18425      2310.3746      302.43586      370.46792      0.40101743     18421.214      353.31832     -4.3577412     -1491.0499     -1197.4058     -2335.1374      35.462913      2.1415676    
   1683000   2709.2412      404.26109      2304.9801      298.06861      153.10445      0.40101743     18421.214      344.31123     -4.3577412     -1500.5563     -1197.4196     -2353.6647      38.447547      1.9738521    
   1684000   2675.3067      389.85867      2285.4481      287.44946     -860.807        0.40101743     18421.214      334.56979     -4.3577412     -1493.4402     -1197.0729     -2355.9433      34.104495      1.8355105    
   1685000   2677.7318      398.74298      2278.9889      294.00001      410.68252      0.40101743     18421.214      350.53567     -4.3577412     -1511.7679     -1197.3494     -2358.5816      37.464048      1.8762376    
   1686000   2740.252       404.31171      2335.9403      298.10593     -57.586473      0.40101743     18421.214      356.20152     -4.3577412     -1473.0627     -1195.3631     -2312.2242      44.519457      2.1136137    
   1687000   2714.977       412.85622      2302.1208      304.40595     -393.77185      0.40101743     18421.214      349.51856     -4.3577412     -1484.7363     -1197.4168     -2332.6346      35.827203      1.7782341    
   1688000   2748.0895      425.44717      2322.6424      313.68947     -427.81247      0.40101743     18421.214      354.1575      -4.3577412     -1501.3596     -1197.4822     -2344.6842      34.044587      1.4712491    
   1689000   2704.3885      391.09045      2313.2981      288.35767     -726.43126      0.40101743     18421.214      344.12386     -4.3577412     -1504.5594     -1196.3585     -2356.794       34.553163      2.6176797    
   1690000   2709.2966      426.4889       2282.8077      314.45755      355.08062      0.40101743     18421.214      350.57515     -4.3577412     -1485.9754     -1198.023      -2333.4232      39.201061      2.2404269    
   1691000   2731.8513      428.55802      2303.2933      315.98315     -560.24652      0.40101743     18421.214      342.55537     -4.3577412     -1496.9667     -1196.5578     -2350.9692      42.519545      1.4046098    
   1692000   2721.0695      416.53201      2304.5375      307.11617      291.92774      0.40101743     18421.214      343.04837     -4.3577412     -1499.4649     -1196.4452     -2352.8618      36.91353       1.8676846    
   1693000   2741.665       418.56065      2323.1043      308.61192      752.68414      0.40101743     18421.214      363.12456     -4.3577412     -1488.1058     -1197.671      -2322.6522      34.485834      1.9963866    
   1694000   2762.5357      440.29861      2322.2371      324.63969      632.94346      0.40101743     18421.214      350.02878     -4.3577412     -1492.1216     -1197.3731     -2339.4659      39.741582      1.6684602    
   1695000   2731.3458      434.10383      2297.242       320.07218      551.04071      0.40101743     18421.214      346.23532     -4.3577412     -1485.9934     -1197.8037     -2337.5617      36.873124      2.0929629    
   1696000   2706.6349      413.21576      2293.4191      304.67104      250.61467      0.40101743     18421.214      333.28725     -4.3577412     -1498.7918     -1197.4337     -2362.9383      38.824066      1.58486      
   1697000   2701.8707      385.59658      2316.2741      284.30695     -1337.5565      0.40101743     18421.214      340.24937     -4.3577412     -1503.4565     -1195.4108     -2358.6179      40.437216      1.483024     
   1698000   2712.5304      411.60813      2300.9222      303.48571     -932.75728      0.40101743     18421.214      341.72317     -4.3577412     -1501.9975     -1197.4941     -2357.7684      38.859506      1.9643079    
   1699000   2716.2371      398.08611      2318.151       293.51569      1120.2448      0.40101743     18421.214      353.01987     -4.3577412     -1491.6454     -1195.1283     -2333.7538      38.084608      1.8812211    
   1700000   2722.1196      424.17738      2297.9422      312.75323     -1081.2352      0.40101743     18421.214      356.33252     -4.3577412     -1503.6198     -1197.4564     -2344.7437      37.813486      1.9749344    
   1701000   2691.8384      406.43601      2285.4024      299.67222      913.93678      0.40101743     18421.214      332.72443     -4.3577412     -1500.5583     -1195.4674     -2363.3012      43.905093      2.4084212    
   1702000   2704.8658      392.60993      2312.2558      289.47801     -729.07868      0.40101743     18421.214      339.79627     -4.3577412     -1500.3154     -1196.7997     -2357.3188      38.804711      2.22225      
   1703000   2709.0436      399.59084      2309.4528      294.62516     -153.02689      0.40101743     18421.214      347.40253     -4.3577412     -1504.1606     -1197.1636     -2353.9218      43.499661      1.6163145    
   1704000   2723.7632      433.04149      2290.7217      319.28889      825.49653      0.40101743     18421.214      347.08984     -4.3577412     -1499.4824     -1195.7798     -2348.1724      33.302379      2.4952579    
   1705000   2702.8429      394.85034      2307.9925      291.12991      190.94694      0.40101743     18421.214      352.84141     -4.3577412     -1522.4929     -1196.9077     -2366.5592      38.386554      1.7893851    
   1706000   2706.9559      431.94771      2275.0082      318.48243     -187.80003      0.40101743     18421.214      344.02236     -4.3577412     -1500.9606     -1197.3192     -2354.2574      41.227489      2.0162556    
   1707000   2700.5122      404.16321      2296.349       297.99644      225.87609      0.40101743     18421.214      363.24315     -4.3577412     -1499.827      -1199.1877     -2335.7716      37.122483      2.2599464    
   1708000   2716.1892      427.85726      2288.3319      315.46647     -751.07377      0.40101743     18421.214      347.05676     -4.3577412     -1510.3143     -1198.3098     -2361.5673      44.548051      2.0234793    
   1709000   2726.1094      413.40391      2312.7055      304.80977     -524.62674      0.40101743     18421.214      347.9436      -4.3577412     -1484.8587     -1196.5221     -2333.4372      37.425782      2.2609875    
   1710000   2723.6979      424.22224      2299.4756      312.78631      659.2526       0.40101743     18421.214      351.97332     -4.3577412     -1491.1105     -1196.9419     -2336.0791      35.907607      1.783708     
   1711000   2691.8313      417.10689      2274.7244      307.54004      173.41096      0.40101743     18421.214      348.58917     -4.3577412     -1506.8451     -1196.7091     -2354.965       33.916622      1.5862522    
   1712000   2703.7557      410.63599      2293.1197      302.76893      471.86355      0.40101743     18421.214      344.6508      -4.3577412     -1505.2099     -1196.9865     -2357.5456      40.709545      1.862399     
   1713000   2718.6716      386.86011      2331.8114      285.23857      10.655489      0.40101743     18421.214      353.55335     -4.3577412     -1510.1612     -1197.4834     -2354.0913      36.506004      1.3682975    
   1714000   2696.5404      396.01093      2300.5294      291.98563     -1002.1651      0.40101743     18421.214      341.55682     -4.3577412     -1505.8611     -1197.0292     -2361.3335      33.099782      2.0357221    
   1715000   2722.9147      400.22246      2322.6922      295.09086     -240.10165      0.40101743     18421.214      338.13831     -4.3577412     -1488.9186     -1197.3598     -2348.14        35.204856      2.101007     
   1716000   2695.6928      401.79439      2293.8984      296.24987      263.08387      0.40101743     18421.214      355.79934     -4.3577412     -1491.3118     -1196.6947     -2332.2072      36.6262        2.0503659    
   1717000   2704.4198      428.5612       2275.8586      315.9855       1190.272       0.40101743     18421.214  