
#------------------------------------------------------------------------------#
# simulation settings
#------------------------------------------------------------------------------#

##### simulation variables

variable        seed 	equal  77229
variable        T       equal  300	    #K
variable        p       equal  0.0 	#bar
variable        damp_T  equal  100 		  	#K
variable        damp_P  equal  1000.0	  	#bar
variable        dT      equal  1.0 		 	#fs
variable        kb      equal  0.0019872041

## system setup ##

units           real
atom_style      full
boundary        p p p

pair_style      lj/cut/coul/long 12.500
bond_style      harmonic
angle_style     hybrid fourier cosine/periodic
dihedral_style  harmonic
improper_style  fourier
kspace_style 	ewald 0.000001

dielectric 	 	1.0
pair_modify 	tail yes mix arithmetic
special_bonds 	lj/coul 0.0 0.0 1.0

read_data 	 	../data.emin_pto-4c_In-3c_BTB_DMA_fe
Reading data file ...
  triclinic box = (1.0127974 1.2506642 1.0737052) to (27.573203 27.546212 27.449243) with tilt (-0.4871608 -0.79355401 -0.31961632)
  2 by 1 by 2 MPI processor grid
  reading atoms ...
  456 atoms
  reading velocities ...
  456 velocities
  scanning bonds ...
  8 = max bonds/atom
  scanning angles ...
  28 = max angles/atom
  scanning dihedrals ...
  12 = max dihedrals/atom
  scanning impropers ...
  3 = max impropers/atom
  reading bonds ...
  516 bonds
  reading angles ...
  972 angles
  reading dihedrals ...
  1164 dihedrals
  reading impropers ...
  648 impropers
Finding 1-2 1-3 1-4 neighbors ...
  special bond factors lj:    0        0        1       
  special bond factors coul:  0        0        1       
     8 = max # of 1-2 neighbors
     9 = max # of 1-3 neighbors
    12 = max # of special neighbors
  special bonds CPU = 0.000 seconds
  read_data CPU = 0.005 seconds
include 	 	../non_bonded_pto-4c_In-3c_BTB.param
### Parameters for Equilibration ###

### Parameters for MOF ###

mass 1 12.010700000
mass 2 1.007940000
mass 3 114.818000000
mass 4 15.999400000


bond_coeff 1 462.655054 1.379256
bond_coeff 2 391.669513 1.458000
bond_coeff 3 357.440381 1.081418
bond_coeff 4 187.991596 2.033568
bond_coeff 5 646.680887 1.311940

angle_coeff 1 cosine/periodic 111.297508 -1 3
angle_coeff 2 cosine/periodic 102.183280 -1 3
angle_coeff 3 cosine/periodic 57.289016 -1 3
angle_coeff 4 fourier 127.915933 0.343737 0.374972 0.281246
angle_coeff 5 cosine/periodic 77.909182 -1 3
angle_coeff 6 cosine/periodic 131.755710 -1 3
angle_coeff 7 cosine/periodic 187.136328 -1 3

dihedral_coeff 1 3.368555 -1 2
dihedral_coeff 2 1.250000 -1 2
dihedral_coeff 3 6.737110 -1 2

improper_coeff 1 2.000000 1.000000 -1.000000 0.000000 0

### Parameters for Molecule ###

mass 5 12.010700000
mass 6 1.007940000
mass 7 14.006700000


bond_coeff 6 331.069389 1.109401
bond_coeff 7 528.634538 1.451071
bond_coeff 8 527.945261 1.044419

angle_coeff 8 fourier 75.498766 0.343737 0.374972 0.281246
angle_coeff 9 fourier 169.780468 0.343737 0.374972 0.281246
angle_coeff 10 fourier 260.869388 0.317506 0.313225 0.272502
angle_coeff 11 fourier 144.695053 0.317506 0.313225 0.272502
angle_coeff 12 fourier 97.017167 0.317506 0.313225 0.272502

dihedral_coeff 4 0.054250 1 3


pair_coeff 1 1 0.105 3.43085
pair_coeff 1 2 0.0679706 3.00099
pair_coeff 1 3 0.250789 3.70347
pair_coeff 1 4 0.0793725 3.2745
pair_coeff 1 5 0.105 3.43085
pair_coeff 1 6 0.0679706 3.00099
pair_coeff 1 7 0.0851176 3.34577
pair_coeff 2 2 0.044 2.57113
pair_coeff 2 3 0.162345 3.27361
pair_coeff 2 4 0.0513809 2.84464
pair_coeff 2 5 0.0679706 3.00099
pair_coeff 2 6 0.044 2.57113
pair_coeff 2 7 0.0550999 2.91591
pair_coeff 3 3 0.599 3.97608
pair_coeff 3 4 0.189578 3.54711
pair_coeff 3 5 0.250789 3.70347
pair_coeff 3 6 0.162345 3.27361
pair_coeff 3 7 0.2033 3.61838
pair_coeff 4 4 0.06 3.11815
pair_coeff 4 5 0.0793725 3.2745
pair_coeff 4 6 0.0513809 2.84464
pair_coeff 4 7 0.0643428 3.18942
pair_coeff 5 5 0.105 3.43085
pair_coeff 5 6 0.0679706 3.00099
pair_coeff 5 7 0.0851176 3.34577
pair_coeff 6 6 0.044 2.57113
pair_coeff 6 7 0.0550999 2.91591
pair_coeff 7 7 0.069 3.26069

group			fram type < 5
390 atoms in group fram

fix				SPRING fram spring/self 10 	# harmonic restraint to framework

group			cation type > 4
66 atoms in group cation
group			center type 7
6 atoms in group center
fix			SPRING2 center spring/self 1


#------------------------------------------------------------------------------#
# equilibration
#------------------------------------------------------------------------------#

reset_timestep	0

variable 		delta equal ${lambda}
variable 		delta equal 1e-08
fix 			ADAPT all adapt 0 atom charge v_delta scale yes

thermo_style	custom step etotal ke pe temp press density vol evdwl etail ecoul elong epair
thermo 			5000
velocity 		all create ${T} ${seed}
velocity 		all create 300 ${seed}
velocity 		all create 300 77229

fix				f1 all nve
fix 			f2 all langevin ${T} ${T} ${damp_T} ${seed} zero yes
fix 			f2 all langevin 300 ${T} ${damp_T} ${seed} zero yes
fix 			f2 all langevin 300 300 ${damp_T} ${seed} zero yes
fix 			f2 all langevin 300 300 100 ${seed} zero yes
fix 			f2 all langevin 300 300 100 77229 zero yes
compute 		c1 all temp/com
fix_modify		f2 temp c1

run				200000
Ewald initialization ...
WARNING: System is not charge neutral, net charge = -6e-05 (../kspace.cpp:327)
  using 12-bit tables for long-range coulomb (../kspace.cpp:342)
  G vector (1/distance) = 0.23481561
  estimated absolute RMS force accuracy = 0.00037577262
  estimated relative force accuracy = 1.1316281e-06
  KSpace vectors: actual max1d max3d = 458 6 1098
                  kxmax kymax kzmax  = 6 6 6
Generated 0 of 21 mixed pair_coeff terms from arithmetic mixing rule
Neighbor list info ...
  update every 1 steps, delay 10 steps, check yes
  max neighbors/atom: 2000, page size: 100000
  master list distance cutoff = 14.5
  ghost atom cutoff = 14.5
  binsize = 7.25, bins = 4 4 4
  1 neighbor lists, perpetual/occasional/extra = 1 0 0
  (1) pair lj/cut/coul/long, perpetual
      attributes: half, newton on
      pair build: half/bin/newton/tri
      stencil: half/bin/3d/tri
      bin: standard
WARNING: Inconsistent image flags (../domain.cpp:819)
Per MPI rank memory allocation (min/avg/max) = 22.97 | 22.97 | 22.98 Mbytes
   Step         TotEng         KinEng         PotEng          Temp          Press         Density         Volume         E_vdwl         E_tail         E_coul         E_long         E_pair    
         0   5029.1523      406.88057      4622.2718      300            4115.3117      0.40101743     18421.214      321.08744     -4.3577412     -1.5011344e-13 -1.2370121e-13  321.08744    
      5000   5355.3927      418.86577      4936.527       308.83689      3162.716       0.40101743     18421.214      359.72661     -4.3577412     -1.3480347e-13 -1.2366441e-13  359.72661    
     10000   5351.2105      400.73333      4950.4771      295.46754      3974.0166      0.40101743     18421.214      365.56233     -4.3577412     -1.3456045e-13 -1.2350657e-13  365.56233    
     15000   5353.1219      397.4049       4955.717       293.01343      2974.1427      0.40101743     18421.214      344.18203     -4.3577412     -1.3652268e-13 -1.2376509e-13  344.18203    
     20000   5355.9599      406.78921      4949.1706      299.93264      3997.9385      0.40101743     18421.214      349.86986     -4.3577412     -1.3522624e-13 -1.2353063e-13  349.86986    
     25000   5385.432       416.30873      4969.1232      306.95154      2595.3486      0.40101743     18421.214      352.30363     -4.3577412     -1.3299884e-13 -1.2364733e-13  352.30363    
     30000   5365.8696      416.92603      4948.9436      307.40669      4758.1489      0.40101743     18421.214      364.89752     -4.3577412     -1.3576336e-13 -1.2373708e-13  364.89752    
     35000   5353.7189      411.12468      4942.5942      303.12925      3354.6551      0.40101743     18421.214      359.16266     -4.3577412     -1.3363118e-13 -1.2323342e-13  359.16266    
     40000   5355.4702      401.80695      4953.6633      296.25913      3466.0909      0.40101743     18421.214      349.277       -4.3577412     -1.3508821e-13 -1.2381302e-13  349.277      
     45000   5334.7644      386.92532      4947.8391      285.28665      2999.3151      0.40101743     18421.214      344.69179     -4.3577412     -1.3564017e-13 -1.2346571e-13  344.69179    
     50000   5364.1454      402.63159      4961.5138      296.86715      2867.6297      0.40101743     18421.214      352.24566     -4.3577412     -1.3463707e-13 -1.2381748e-13  352.24566    
     55000   5350.3749      429.97438      4920.4006      317.02746      3584.6785      0.40101743     18421.214      357.2932      -4.3577412     -1.3262726e-13 -1.2391548e-13  357.2932     
     60000   5358.2759      425.28175      4932.9941      313.5675       3266.2207      0.40101743     18421.214      345.23431     -4.3577412     -1.3464311e-13 -1.234533e-13   345.23431    
     65000   5340.0617      436.58122      4903.4805      321.89879      2721.5898      0.40101743     18421.214      340.01134     -4.3577412     -1.3337242e-13 -1.2394666e-13  340.01134    
     70000   5286.1244      378.7405       4907.3839      279.25184      2469.2975      0.40101743     18421.214      335.47648     -4.3577412     -1.3446073e-13 -1.2361167e-13  335.47648    
     75000   5343.9516      405.81409      4938.1375      299.21367      5713.0386      0.40101743     18421.214      367.88738     -4.3577412     -1.3623042e-13 -1.2363828e-13  367.88738    
     80000   5323.0547      394.39644      4928.6582      290.79523      2121.9542      0.40101743     18421.214      338.54328     -4.3577412     -1.362618e-13  -1.2369383e-13  338.54328    
     85000   5353.7387      424.15949      4929.5792      312.74004      2887.9881      0.40101743     18421.214      354.17536     -4.3577412     -1.3550402e-13 -1.237246e-13   354.17536    
     90000   5319.2396      415.07234      4904.1673      306.03993      3483.4357      0.40101743     18421.214      348.26578     -4.3577412     -1.3427315e-13 -1.235785e-13   348.26578    
     95000   5371.9562      420.56942      4951.3868      310.09302      2709.0982      0.40101743     18421.214      349.24165     -4.3577412     -1.3305726e-13 -1.2379372e-13  349.24165    
    100000   5365.778       412.23223      4953.5458      303.94587      3235.0207      0.40101743     18421.214      353.07093     -4.3577412     -1.3641905e-13 -1.2325189e-13  353.07093    
    105000   5333.2621      409.70887      4923.5532      302.08536      4965.8456      0.40101743     18421.214      353.27111     -4.3577412     -1.3721392e-13 -1.2379777e-13  353.27111    
    110000   5362.962       431.12697      4931.835       317.87728      3311.4277      0.40101743     18421.214      338.53673     -4.3577412     -1.3568379e-13 -1.2391881e-13  338.53673    
    115000   5340.9084      406.11692      4934.7914      299.43695      1660.1302      0.40101743     18421.214      345.47004     -4.3577412     -1.351071e-13  -1.2307925e-13  345.47004    
    120000   5341.3772      406.85772      4934.5195      299.98315      2871.5201      0.40101743     18421.214      345.53937     -4.3577412     -1.3393212e-13 -1.2348743e-13  345.53937    
    125000   5365.8657      422.86753      4942.9982      311.78746      3556.0157      0.40101743     18421.214      342.62857     -4.3577412     -1.348031e-13  -1.2377879e-13  342.62857    
    130000   5348.659       407.5428       4941.1162      300.48828      2690.2779      0.40101743     18421.214      342.85742     -4.3577412     -1.348934e-13  -1.234839e-13   342.85742    
    135000   5338.0424      404.40556      4933.6368      298.17513      3392.764       0.40101743     18421.214      346.50039     -4.3577412     -1.3420182e-13 -1.2382103e-13  346.50039    
    140000   5356.3008      427.03595      4929.2649      314.86091      3825.5749      0.40101743     18421.214      355.05651     -4.3577412     -1.3456214e-13 -1.230361e-13   355.05651    
    145000   5349.0141      439.24489      4909.7692      323.86276      4016.0603      0.40101743     18421.214      352.28914     -4.3577412     -1.3389244e-13 -1.2286686e-13  352.28914    
    150000   5325.5093      410.29894      4915.2104      302.52042      2914.0693      0.40101743     18421.214      351.60766     -4.3577412     -1.3406186e-13 -1.2364002e-13  351.60766    
    155000   5349.0874      423.30399      4925.7834      312.10926      3172.3243      0.40101743     18421.214      349.08492     -4.3577412     -1.3433818e-13 -1.2371017e-13  349.08492    
    160000   5327.6031      410.62523      4916.9779      302.761        2931.9426      0.40101743     18421.214      340.07889     -4.3577412     -1.3466979e-13 -1.2358674e-13  340.07889    
    165000   5330.2821      417.79993      4912.4822      308.05103      1748.595       0.40101743     18421.214      346.99491     -4.3577412     -1.3377691e-13 -1.2357261e-13  346.99491    
    170000   5380.758       426.29237      4954.4657      314.31265      3150.4783      0.40101743     18421.214      351.5687      -4.3577412     -1.3361524e-13 -1.2333889e-13  351.5687     
    175000   5328.8923      382.73622      4946.1561      282.19796      3348.2686      0.40101743     18421.214      361.49802     -4.3577412     -1.3325752e-13 -1.2370693e-13  361.49802    
    180000   5335.3578      398.43513      4936.9227      293.77303      3268.2492      0.40101743     18421.214      350.99307     -4.3577412     -1.3452222e-13 -1.2370223e-13  350.99307    
    185000   5346.7155      397.70624      4949.0093      293.23561      3593.0344      0.40101743     18421.214      359.61702     -4.3577412     -1.3421152e-13 -1.2370471e-13  359.61702    
    190000   5374.3315      415.13223      4959.1993      306.08409      1508.5734      0.40101743     18421.214      342.27482     -4.3577412     -1.3384372e-13 -1.2366851e-13  342.27482    
    195000   5333.6499      387.35825      4946.2916      285.60585      3949.2549      0.40101743     18421.214      353.73202     -4.3577412     -1.352865e-13  -1.2355113e-13  353.73202    
    200000   5334.4243      383.7676       4950.6567      282.95841      3400.573       0.40101743     18421.214      352.35291     -4.3577412     -1.3412501e-13 -1.2368976e-13  352.35291    
Loop time of 25.2297 on 4 procs for 200000 steps with 456 atoms

Performance: 684.907 ns/day, 0.035 hours/ns, 7927.159 timesteps/s
99.6% CPU use with 4 MPI tasks x no OpenMP threads

MPI task timing breakdown:
Section |  min time  |  avg time  |  max time  |%varavg| %total
---------------------------------------------------------------
Pair    | 12.777     | 14.831     | 16.822     |  39.1 | 58.78
Bond    | 1.8543     | 1.8908     | 1.9412     |   2.4 |  7.49
Kspace  | 0.91273    | 2.8719     | 4.9481     |  88.8 | 11.38
Neigh   | 1.2702     | 1.2715     | 1.2728     |   0.1 |  5.04
Comm    | 3.1872     | 3.2104     | 3.2351     |   1.2 | 12.72
Output  | 0.00047046 | 0.00049496 | 0.00056737 |   0.0 |  0.00
Modify  | 0.96227    | 0.968      | 0.97801    |   0.6 |  3.84
Other   |            | 0.1861     |            |       |  0.74

Nlocal:            114 ave         117 max         112 min
Histogram: 2 0 0 0 0 0 1 0 0 1
Nghost:        2277.75 ave        2332 max        2227 min
Histogram: 1 0 1 0 0 0 1 0 0 1
Neighs:        18198.8 ave       19970 max       15978 min
Histogram: 1 0 1 0 0 0 0 0 0 2

Total # of neighbors = 72795
Ave neighs/atom = 159.63816
Ave special neighs/atom = 6.3157895
Neighbor list builds = 3574
Dangerous builds = 0
unfix			ADAPT

#------------------------------------------------------------------------------#
# sampling
#------------------------------------------------------------------------------#

reset_timestep	0

variable		elec equal 2*(elong+ecoul)
variable		dudlam equal v_elec/${lambda}
variable		dudlam equal v_elec/1e-08
fix				ELEC all ave/time 250 1 250 v_dudlam file q_${lambda}.lmp
fix				ELEC all ave/time 250 1 250 v_dudlam file q_1e-08.lmp

thermo_style	custom step etotal ke pe temp press density vol evdwl etail ecoul elong epair v_elec
thermo			250

run 			500000
Ewald initialization ...
  using 12-bit tables for long-range coulomb (../kspace.cpp:342)
  G vector (1/distance) = 0.2041222
  estimated absolute RMS force accuracy = 2.728936e-16
  estimated relative force accuracy = 8.2181097e-19
  KSpace vectors: actual max1d max3d = 2 1 13
                  kxmax kymax kzmax  = 1 1 1
Generated 0 of 21 mixed pair_coeff terms from arithmetic mixing rule
WARNING: Inconsistent image flags (../domain.cpp:819)
Per MPI rank memory allocation (min/avg/max) = 22.97 | 22.97 | 22.98 Mbytes
   Step         TotEng         KinEng         PotEng          Temp          Press         Density         Volume         E_vdwl         E_tail         E_coul         E_long         E_pair         v_elec    
         0   5334.4243      383.7676       4950.6567      282.95841      3400.573       0.40101743     18421.214      352.35291     -4.3577412     -1.486895e-13  -1.0748935e-13  352.35291     -5.1235769e-13
       250   5335.027       416.86786      4918.1591      307.3638       2680.609       0.40101743     18421.214      341.05759     -4.3577412     -1.5022934e-13 -1.0741978e-13  341.05759     -5.1529823e-13
       500   5364.8713      400.60967      4964.2616      295.37636      3845.9906      0.40101743     18421.214      355.18384     -4.3577412     -1.4862392e-13 -1.0742762e-13  355.18384     -5.1210308e-13
       750   5337.6744      414.27633      4923.3981      305.45302      3331.5904      0.40101743     18421.214      346.50164     -4.3577412     -1.489531e-13  -1.0749863e-13  346.50164     -5.1290346e-13
      1000   5334.6352      425.73001      4908.9052      313.89801      3957.3394      0.40101743     18421.214      363.60892     -4.3577412     -1.4685691e-13 -1.0754807e-13  363.60892     -5.0880996e-13
      1250   5347.4087      395.72239      4951.6864      291.77288      2691.4496      0.40101743     18421.214      353.11665     -4.3577412     -1.4889697e-13 -1.0765108e-13  353.11665     -5.130961e-13 
      1500   5329.3391      382.86442      4946.4746      282.29248      2889.6303      0.40101743     18421.214      342.11059     -4.3577412     -1.4910673e-13 -1.0748399e-13  342.11059     -5.1318145e-13
      1750   5320.0908      402.92838      4917.1624      297.08598      3142.145       0.40101743     18421.214      346.09621     -4.3577412     -1.4992325e-13 -1.0750936e-13  346.09621     -5.1486521e-13
      2000   5323.4362      400.06723      4923.369       294.97641      3076.7582      0.40101743     18421.214      354.24675     -4.3577412     -1.503652e-13  -1.0750846e-13  354.24675     -5.1574733e-13
      2250   5317.2151      380.4635       4936.7516      280.52224      4764.7359      0.40101743     18421.214      365.25033     -4.3577412     -1.4752032e-13 -1.0717518e-13  365.25033     -5.09391e-13  
      2500   5346.7024      402.65622      4944.0462      296.88531      4165.1479      0.40101743     18421.214      360.44929     -4.3577412     -1.4908001e-13 -1.0702244e-13  360.44929     -5.1220488e-13
      2750   5349.2755      426.11049      4923.165       314.17855      3694.6935      0.40101743     18421.214      357.80241     -4.3577412     -1.488187e-13  -1.0732361e-13  357.80241     -5.1228462e-13
      3000   5345.7793      401.79824      4943.9811      296.25271      3193.4187      0.40101743     18421.214      347.11684     -4.3577412     -1.5124084e-13 -1.0751877e-13  347.11684     -5.1751922e-13
      3250   5316.1924      394.00048      4922.1919      290.50329      2523.2606      0.40101743     18421.214      349.58349     -4.3577412     -1.4964763e-13 -1.0735595e-13  349.58349     -5.1400715e-13
      3500   5384.4197      437.63154      4946.7881      322.67321      3575.4345      0.40101743     18421.214      352.43387     -4.3577412     -1.5026874e-13 -1.0728681e-13  352.43387     -5.1511109e-13
      3750   5333.739       413.48772      4920.2512      304.87156      3221.6402      0.40101743     18421.214      354.97588     -4.3577412     -1.4915428e-13 -1.0696394e-13  354.97588     -5.1223644e-13
      4000   5360.8297      405.76883      4955.0608      299.1803       3641.3787      0.40101743     18421.214      365.45814     -4.3577412     -1.4976374e-13 -1.070254e-13   365.45814     -5.1357829e-13
      4250   5315.4708      405.70168      4909.7691      299.13078      2655.7811      0.40101743     18421.214      341.58565     -4.3577412     -1.4961917e-13 -1.0730026e-13  341.58565     -5.1383886e-13
      4500   5325.1517      405.99607      4919.1557      299.34784      3946.1389      0.40101743     18421.214      352.48923     -4.3577412     -1.4974749e-13 -1.0748103e-13  352.48923     -5.1445704e-13
      4750   5370.8097      416.2344       4954.5753      306.89674      2911.1536      0.40101743     18421.214      347.78975     -4.3577412     -1.4907599e-13 -1.0767137e-13  347.78975     -5.1349472e-13
      5000   5346.8057      413.37769      4933.428       304.79044      3494.3355      0.40101743     18421.214      344.69161     -4.3577412     -1.4895285e-13 -1.0766341e-13  344.69161     -5.1323253e-13
      5250   5365.2823      436.22407      4929.0582      321.63547      2448.5142      0.40101743     18421.214      343.33354     -4.3577412     -1.4884375e-13 -1.0772726e-13  343.33354     -5.1314202e-13
      5500   5378.3059      425.24184      4953.0641      313.53808      3060.2503      0.40101743     18421.214      352.92298     -4.3577412     -1.4674261e-13 -1.0779446e-13  352.92298     -5.0907415e-13
      5750   5361.2842      406.20277      4955.0814      299.50024      3338.6195      0.40101743     18421.214      363.82728     -4.3577412     -1.4712966e-13 -1.0766053e-13  363.82728     -5.0958036e-13
      6000   5369.8578      448.20093      4921.6568      330.46621      3893.6233      0.40101743     18421.214      362.28885     -4.3577412     -1.4774742e-13 -1.0774342e-13  362.28885     -5.1098168e-13
      6250   5356.175       416.63644      4939.5385      307.19317      4122.8636      0.40101743     18421.214      355.30547     -4.3577412     -1.5049335e-13 -1.0771823e-13  355.30547     -5.1642315e-13
      6500   5369.1605      435.10064      4934.0599      320.80714      3905.4717      0.40101743     18421.214      351.74266     -4.3577412     -1.4936497e-13 -1.0753449e-13  351.74266     -5.1379892e-13
      6750   5331.7448      414.85931      4916.8855      305.88286      3863.9693      0.40101743     18421.214      358.09083     -4.3577412     -1.4816092e-13 -1.0746771e-13  358.09083     -5.1125725e-13
      7000   5312.9481      395.98734      4916.9607      291.96823      2850.3778      0.40101743     18421.214      348.17579     -4.3577412     -1.5175652e-13 -1.0751288e-13  348.17579     -5.1853881e-13
      7250   5376.8623      443.25034      4933.612       326.81605      2368.867       0.40101743     18421.214      339.65649     -4.3577412     -1.486927e-13  -1.0739983e-13  339.65649     -5.1218506e-13
      7500   5354.9349      423.11882      4931.8161      311.97274      2891.6774      0.40101743     18421.214      351.35393     -4.3577412     -1.4997603e-13 -1.0753554e-13  351.35393     -5.1502314e-13
      7750   5339.7685      412.87977      4926.8887      304.42331      3311.7314      0.40101743     18421.214      342.34583     -4.3577412     -1.5110041e-13 -1.0770438e-13  342.34583     -5.1760958e-13
      8000   5311.8429      406.77072      4905.0722      299.919        3489.1369      0.40101743     18421.214      357.75963     -4.3577412     -1.5110442e-13 -1.0768472e-13  357.75963     -5.1757827e-13
      8250   5377.3693      441.31671      4936.0526      325.39035      4030.9183      0.40101743     18421.214      349.40136     -4.3577412     -1.5062313e-13 -1.0756425e-13  349.40136     -5.1637478e-13
      8500   5323.4479      387.14883      4936.2991      285.45145      4736.9107      0.40101743     18421.214      366.71922     -4.3577412     -1.4923609e-13 -1.0760573e-13  366.71922     -5.1368364e-13
      8750   5300.5271      384.23454      4916.2926      283.30269      3180.2429      0.40101743     18421.214      342.5189      -4.3577412     -1.4812489e-13 -1.0765495e-13  342.5189      -5.1155967e-13
      9000   5339.024       409.99543      4929.0286      302.29664      2657.1923      0.40101743     18421.214      335.18001     -4.3577412     -1.4838093e-13 -1.0752232e-13  335.18001     -5.1180649e-13
      9250   5352.6468      411.61235      4941.0345      303.48882      3811.6488      0.40101743     18421.214      344.26356     -4.3577412     -1.5000964e-13 -1.073921e-13   344.26356     -5.1480348e-13
      9500   5342.776       394.95399      4947.822       291.20632      3180.3882      0.40101743     18421.214      345.06491     -4.3577412     -1.4764091e-13 -1.0742604e-13  345.06491     -5.101339e-13 
      9750   5314.3265      404.50444      4909.8221      298.24804      2568.5505      0.40101743     18421.214      346.16117     -4.3577412     -1.5031317e-13 -1.0755857e-13  346.16117     -5.1574349e-13
     10000   5361.1308      410.6591       4950.4717      302.78598      2043.3345      0.40101743     18421.214      347.24133     -4.3577412     -1.498083e-13  -1.0740214e-13  347.24133     -5.1442088e-13
     10250   5360.5161      419.66429      4940.8518      309.42565      3152.9228      0.40101743     18421.214      356.7969      -4.3577412     -1.4938157e-13 -1.0752742e-13  356.7969      -5.1381798e-13
     10500   5323.2795      382.84004      4940.4394      282.2745       4655.7712      0.40101743     18421.214      365.28854     -4.3577412     -1.4987929e-13 -1.0761425e-13  365.28854     -5.1498708e-13
     10750   5302.4048      398.74926      4903.6555      294.00465      3442.2953      0.40101743     18421.214      349.23279     -4.3577412     -1.5025166e-13 -1.0754998e-13  349.23279     -5.1560328e-13
     11000   5317.668       398.68627      4918.9818      293.9582       3022.8634      0.40101743     18421.214      336.48193     -4.3577412     -1.4965413e-13 -1.0764848e-13  336.48193     -5.1460521e-13
     11250   5337.3713      415.19058      4922.1807      306.12711      2909.8236      0.40101743     18421.214      339.91123     -4.3577412     -1.482221e-13  -1.0772986e-13  339.91123     -5.1190391e-13
     11500   5394.0719      432.44482      4961.6271      318.84896      3756.433       0.40101743     18421.214      357.76359     -4.3577412     -1.4883725e-13 -1.075015e-13   357.76359     -5.126775e-13 
     11750   5365.0974      435.31188      4929.7855      320.96289      3345.3373      0.40101743     18421.214      351.4402      -4.3577412     -1.4855735e-13 -1.0755488e-13  351.4402      -5.1222445e-13
     12000   5359.9317      437.21134      4922.7204      322.36339      3097.2193      0.40101743     18421.214      354.74121     -4.3577412     -1.4801542e-13 -1.0769278e-13  354.74121     -5.1141639e-13
     12250   5367.9003      410.07634      4957.824       302.3563       3685.5196      0.40101743     18421.214      346.87459     -4.3577412     -1.487357e-13  -1.0780211e-13  346.87459     -5.1307564e-13
     12500   5375.2998      433.37621      4941.9236      319.53569      3691.18        0.40101743     18421.214      349.33983     -4.3577412     -1.50455e-13   -1.0782164e-13  349.33983     -5.1655329e-13
     12750   5365.1211      426.62139      4938.4997      314.55524      2742.1481      0.40101743     18421.214      347.59919     -4.3577412     -1.4891265e-13 -1.0777439e-13  347.59919     -5.1337409e-13
     13000   5306.5766      374.80564      4931.7709      276.35061      3225.5897      0.40101743     18421.214      348.4524      -4.3577412     -1.4814665e-13 -1.0777923e-13  348.4524      -5.1185176e-13
     13250   5338.9159      430.34092      4908.5749      317.29771      1744.157       0.40101743     18421.214      338.09211     -4.3577412     -1.4911376e-13 -1.0781116e-13  338.09211     -5.1384984e-13
     13500   5348.0709      398.57776      4949.4931      293.8782       2438.8058      0.40101743     18421.214      347.50162     -4.3577412     -1.4852777e-13 -1.0771739e-13  347.50162     -5.1249032e-13
     13750   5312.0246      390.44685      4921.5778      287.88314      4143.7991      0.40101743     18421.214      360.42739     -4.3577412     -1.4814841e-13 -1.0775282e-13  360.42739     -5.1180245e-13
     14000   5315.6889      390.24318      4925.4458      287.73297      3726.4434      0.40101743     18421.214      351.45059     -4.3577412     -1.4857667e-13 -1.0772122e-13  351.45059     -5.1259579e-13
     14250   5329.4975      389.62684      4939.8707      287.27853      3980.0136      0.40101743     18421.214      357.16436     -4.3577412     -1.5030281e-13 -1.0755367e-13  357.16436     -5.1571297e-13
     14500   5338.8551      412.39845      4926.4566      304.06843      3297.5261      0.40101743     18421.214      350.4214      -4.3577412     -1.5011661e-13 -1.074026e-13   350.4214      -5.1503841e-13
     14750   5330.2061      389.95232      4940.2538      287.51851      3650.382       0.40101743     18421.214      345.1823      -4.3577412     -1.4792882e-13 -1.0750188e-13  345.1823      -5.108614e-13 
     15000   5336.1449      416.8024       4919.3425      307.31554      3744.7777      0.40101743     18421.214      355.89174     -4.3577412     -1.480248e-13  -1.0733724e-13  355.89174     -5.1072407e-13
     15250   5341.6591      407.92661      4933.7325      300.77126      3603.5304      0.40101743     18421.214      339.67249     -4.3577412     -1.5005097e-13 -1.0729385e-13  339.67249     -5.1468963e-13
     15500   5357.9312      418.77574      4939.1555      308.77051      1868.8678      0.40101743     18421.214      330.78998     -4.3577412     -1.5023788e-13 -1.0748384e-13  330.78998     -5.1544345e-13
     15750   5354.072       402.18955      4951.8825      296.54123      2970.4903      0.40101743     18421.214      355.52254     -4.3577412     -1.4957142e-13 -1.0762067e-13  355.52254     -5.1438417e-13
     16000   5332.594       401.87868      4930.7154      296.31202      3168.5916      0.40101743     18421.214      340.86323     -4.3577412     -1.5037843e-13 -1.0752305e-13  340.86323     -5.1580297e-13
     16250   5327.3506      409.98684      4917.3638      302.29031      4113.1155      0.40101743     18421.214      364.55975     -4.3577412     -1.4818429e-13 -1.0761711e-13  364.55975     -5.116028e-13 
     16500   5335.4133      411.66594      4923.7473      303.52833      3698.5257      0.40101743     18421.214      367.38926     -4.3577412     -1.4464763e-13 -1.0765666e-13  367.38926     -5.0460858e-13
     16750   5348.2187      416.74198      4931.4767      307.27099      3165.9046      0.40101743     18421.214      352.2162      -4.3577412     -1.4891049e-13 -1.0752815e-13  352.2162      -5.1287729e-13
     17000   5306.0426      386.44155      4919.6011      284.92996      3729.4448      0.40101743     18421.214      362.63433     -4.3577412     -1.4811536e-13 -1.0748108e-13  362.63433     -5.1119288e-13
     17250   5359.7867      403.23293      4956.5538      297.31053      4062.5078      0.40101743     18421.214      355.43276     -4.3577412     -1.501104e-13  -1.0739755e-13  355.43276     -5.1501589e-13
     17500   5326.517       408.88774      4917.6293      301.47992      3681.059       0.40101743     18421.214      359.98733     -4.3577412     -1.4884169e-13 -1.0756641e-13  359.98733     -5.128162e-13 
     17750   5355.0373      427.26017      4927.7771      315.02623      2659.0732      0.40101743     18421.214      345.62434     -4.3577412     -1.4950519e-13 -1.0768731e-13  345.62434     -5.14385e-13  
     18000   5373.2806      423.27339      4950.0072      312.08671      1122.5126      0.40101743     18421.214      329.10153     -4.3577412     -1.4925752e-13 -1.0766238e-13  329.10153     -5.1383981e-13
     18250   5330.6252      380.7051       4949.9201      280.70038      2464.8418      0.40101743     18421.214      343.69302     -4.3577412     -1.5065495e-13 -1.0733052e-13  343.69302     -5.1597094e-13
     18500   5378.5759      428.85762      4949.7183      316.20405      4352.4681      0.40101743     18421.214      346.14263     -4.3577412     -1.4984325e-13 -1.0743165e-13  346.14263     -5.145498e-13 
     18750   5360.5859      408.93467      4951.6512      301.51452      2582.1493      0.40101743     18421.214      349.20641     -4.3577412     -1.4883452e-13 -1.0754129e-13  349.20641     -5.1275162e-13
     19000   5359.4694      409.03044      4950.439       301.58514      3875.2835      0.40101743     18421.214      354.49504     -4.3577412     -1.489274e-13  -1.0755287e-13  354.49504     -5.1296053e-13
     19250   5386.2782      440.54348      4945.7347      324.82024      4555.4004      0.40101743     18421.214      369.59431     -4.3577412     -1.4825651e-13 -1.0767802e-13  369.59431     -5.1186906e-13
     19500   5314.8043      392.89535      4921.9089      289.68846      4400.5908      0.40101743     18421.214      363.59809     -4.3577412     -1.4784057e-13 -1.0757257e-13  363.59809     -5.1082628e-13
     19750   5329.0866      405.1548       4923.9318      298.72756      3211.8377      0.40101743     18421.214      346.57493     -4.3577412     -1.4963049e-13 -1.0751975e-13  346.57493     -5.1430047e-13
     20000   5344.456       425.54841      4918.9076      313.76411      2111.9467      0.40101743     18421.214      336.60768     -4.3577412     -1.484977e-13  -1.0764257e-13  336.60768     -5.1228054e-13
     20250   5362.4393      407.90629      4954.533       300.75628      4303.4871      0.40101743     18421.214      357.94078     -4.3577412     -1.4872406e-13 -1.0753534e-13  357.94078     -5.1251879e-13
     20500   5318.7202      394.33399      4924.3862      290.74919      2901.4174      0.40101743     18421.214      344.28342     -4.3577412     -1.4876619e-13 -1.0751859e-13  344.28342     -5.1256956e-13
     20750   5312.1475      399.01988      4913.1277      294.20418      3657.1733      0.40101743     18421.214      354.97311     -4.3577412     -1.4968976e-13 -1.0760145e-13  354.97311     -5.1458242e-13
     21000   5389.7251      442.6009       4947.1242      326.33721      2515.2634      0.40101743     18421.214      348.13551     -4.3577412     -1.4892736e-13 -1.0760415e-13  348.13551     -5.1306302e-13
     21250   5353.3592      403.8799       4949.4793      297.78755      2826.3411      0.40101743     18421.214      352.19066     -4.3577412     -1.4738275e-13 -1.0750927e-13  352.19066     -5.0978404e-13
     21500   5353.2399      418.6158       4934.6241      308.65259      2375.4642      0.40101743     18421.214      346.63617     -4.3577412     -1.4735087e-13 -1.0751868e-13  346.63617     -5.097391e-13 
     21750   5333.16        409.22553      4923.9345      301.72898      2469.9383      0.40101743     18421.214      350.29681     -4.3577412     -1.4953534e-13 -1.076572e-13   350.29681     -5.1438509e-13
     22000   5334.1264      403.11389      4931.0126      297.22276      3881.0928      0.40101743     18421.214      355.26074     -4.3577412     -1.4894428e-13 -1.076939e-13   355.26074     -5.1327636e-13
     22250   5317.4427      381.59464      4935.848       281.35625      3152.571       0.40101743     18421.214      355.80986     -4.3577412     -1.4803919e-13 -1.0758206e-13  355.80986     -5.1124249e-13
     22500   5314.038       396.31986      4917.7182      292.21341      2683.5912      0.40101743     18421.214      336.17811     -4.3577412     -1.4972046e-13 -1.0755513e-13  336.17811     -5.1455118e-13
     22750   5342.7201      414.24048      4928.4796      305.42658      4014.4508      0.40101743     18421.214      353.46998     -4.3577412     -1.4961346e-13 -1.07572e-13    353.46998     -5.1437092e-13
     23000   5353.3615      420.8254       4932.5361      310.28176      3558.2802      0.40101743     18421.214      341.54924     -4.3577412     -1.5148786e-13 -1.0758614e-13  341.54924     -5.18148e-13  
     23250   5360.3971      408.04779      4952.3493      300.86061      4185.4292      0.40101743     18421.214      349.97218     -4.3577412     -1.4927687e-13 -1.0736026e-13  349.97218     -5.1327426e-13
     23500   5363.8133      413.89168      4949.9216      305.16941      3249.0191      0.40101743     18421.214      349.06537     -4.3577412     -1.4920538e-13 -1.0742029e-13  349.06537     -5.1325135e-13
     23750   5327.2505      405.26899      4921.9815      298.81175      3411.1022      0.40101743     18421.214      347.41744     -4.3577412     -1.487538e-13  -1.0761379e-13  347.41744     -5.1273519e-13
     24000   5330.6686      414.28332      4916.3852      305.45817      3666.9789      0.40101743     18421.214      355.01392     -4.3577412     -1.4914861e-13 -1.0759112e-13  355.01392     -5.1347946e-13
     24250   5346.0765      404.769        4941.3075      298.4431       2253.1366      0.40101743     18421.214      339.29443     -4.3577412     -1.4857389e-13 -1.0756885e-13  339.29443     -5.1228548e-13
     24500   5355.1777      416.97789      4938.1998      307.44493      3532.4163      0.40101743     18421.214      355.09803     -4.3577412     -1.495011e-13  -1.0765206e-13  355.09803     -5.1430631e-13
     24750   5339.1761      408.58272      4930.5934      301.25502      2653.7252      0.40101743     18421.214      343.69387     -4.3577412     -1.5026897e-13 -1.0764582e-13  343.69387     -5.1582959e-13
     25000   5320.0424      414.52594      4905.5165      305.63706      3471.1095      0.40101743     18421.214      344.89785     -4.3577412     -1.5021789e-13 -1.0761491e-13  344.89785     -5.156656e-13 
     25250   5338.1842      407.83099      4930.3532      300.70076      3707.1598      0.40101743     18421.214      357.86444     -4.3577412     -1.500802e-13  -1.0757119e-13  357.86444     -5.1530279e-13
     25500   5309.3622      386.65598      4922.7062      285.08807      3061.4355      0.40101743     18421.214      341.29313     -4.3577412     -1.4976814e-13 -1.0752817e-13  341.29313     -5.1459263e-13
     25750   5327.3958      391.29789      4936.0979      288.51062      3414.3457      0.40101743     18421.214      345.21235     -4.3577412     -1.4991671e-13 -1.0762149e-13  345.21235     -5.150764e-13 
     26000   5382.807       449.0019       4933.8051      331.05678      3288.1217      0.40101743     18421.214      345.29658     -4.3577412     -1.4985369e-13 -1.0755966e-13  345.29658     -5.148267e-13 
     26250   5336.9818      417.54921      4919.4326      307.86617      2620.6782      0.40101743     18421.214      342.2627      -4.3577412     -1.4882377e-13 -1.0756518e-13  342.2627      -5.127779e-13 
     26500   5328.8863      408.30048      4920.5859      301.04692      3277.0967      0.40101743     18421.214      350.76763     -4.3577412     -1.4945721e-13 -1.0754723e-13  350.76763     -5.1400888e-13
     26750   5335.5859      393.47155      4942.1144      290.1133       3996.1073      0.40101743     18421.214      351.5351      -4.3577412     -1.5138416e-13 -1.0745871e-13  351.5351      -5.1768575e-13
     27000   5364.1137      418.93195      4945.1817      308.88569      4497.4525      0.40101743     18421.214      350.5962      -4.3577412     -1.5056289e-13 -1.0739466e-13  350.5962      -5.159151e-13 
     27250   5341.4774      403.38223      4938.0952      297.42061      3682.2576      0.40101743     18421.214      358.01509     -4.3577412     -1.4757179e-13 -1.0741552e-13  358.01509     -5.0997461e-13
     27500   5317.8213      393.38233      4924.439       290.04752      3679.8258      0.40101743     18421.214      362.20108     -4.3577412     -1.4954079e-13 -1.0737449e-13  362.20108     -5.1383057e-13
     27750   5354.1627      417.00416      4937.1586      307.46429      2007.5892      0.40101743     18421.214      339.79157     -4.3577412     -1.4964433e-13 -1.073278e-13   339.79157     -5.1394425e-13
     28000   5331.9387      405.42107      4926.5177      298.92389      3681.7985      0.40101743     18421.214      351.37478     -4.3577412     -1.5068139e-13 -1.0744923e-13  351.37478     -5.1626123e-13
     28250   5375.734       443.00717      4932.7268      326.63675      2475.891       0.40101743     18421.214      342.95733     -4.3577412     -1.4977816e-13 -1.0760031e-13  342.95733     -5.1475695e-13
     28500   5346.1187      433.3128       4912.8059      319.48893      4078.771       0.40101743     18421.214      347.71997     -4.3577412     -1.4961489e-13 -1.0767606e-13  347.71997     -5.145819e-13 
     28750   5333.3576      408.67737      4924.6802      301.32481      3257.1696      0.40101743     18421.214      349.90229     -4.3577412     -1.4919478e-13 -1.0759997e-13  349.90229     -5.1358951e-13
     29000   5369.5572      431.08689      4938.4703      317.84773      3526.726       0.40101743     18421.214      348.26773     -4.3577412     -1.495137e-13  -1.0756313e-13  348.26773     -5.1415365e-13
     29250   5330.5694      415.43645      4915.133       306.3084       3580.8832      0.40101743     18421.214      342.26416     -4.3577412     -1.5101976e-13 -1.0749048e-13  342.26416     -5.1702048e-13
     29500   5323.7299      396.18404      4927.5458      292.11326      3195.2716      0.40101743     18421.214      356.91142     -4.3577412     -1.4908815e-13 -1.0755912e-13  356.91142     -5.1329455e-13
     29750   5362.4784      423.90452      4938.5739      312.55205      2577.6716      0.40101743     18421.214      345.20373     -4.3577412     -1.4896171e-13 -1.0767291e-13  345.20373     -5.1326924e-13
     30000   5351.7325      427.1003       4924.6322      314.90835      4381.0765      0.40101743     18421.214      357.38702     -4.3577412     -1.4746846e-13 -1.0772827e-13  357.38702     -5.1039345e-13
     30250   5317.1125      400.19895      4916.9136      295.07353      3361.1548      0.40101743     18421.214      344.09841     -4.3577412     -1.4821132e-13 -1.0766062e-13  344.09841     -5.1174388e-13
     30500   5332.0266      412.36497      4919.6616      304.04374      3763.1603      0.40101743     18421.214      349.35767     -4.3577412     -1.4908956e-13 -1.0733674e-13  349.35767     -5.128526e-13 
     30750   5358.8023      421.65783      4937.1445      310.89552      3099.301       0.40101743     18421.214      355.32966     -4.3577412     -1.4817284e-13 -1.0745991e-13  355.32966     -5.1126549e-13
     31000   5346.8335      414.2179       4932.6156      305.40994      2490.5008      0.40101743     18421.214      339.08267     -4.3577412     -1.4948482e-13 -1.0736609e-13  339.08267     -5.1370182e-13
     31250   5337.7398      419.34293      4918.3969      309.18871      4150.4771      0.40101743     18421.214      357.1925      -4.3577412     -1.4836887e-13 -1.0728983e-13  357.1925      -5.1131739e-13
     31500   5373.7296      420.90484      4952.8248      310.34033      3442.5743      0.40101743     18421.214      356.73445     -4.3577412     -1.4809308e-13 -1.074596e-13   356.73445     -5.1110535e-13
     31750   5350.5876      427.50535      4923.0822      315.207        2877.6991      0.40101743     18421.214      351.30066     -4.3577412     -1.4986265e-13 -1.0762031e-13  351.30066     -5.149659e-13 
     32000   5341.6852      402.31661      4939.3686      296.63492      3906.2397      0.40101743     18421.214      361.60846     -4.3577412     -1.5037671e-13 -1.0722535e-13  361.60846     -5.152041e-13 
     32250   5339.8897      402.85697      4937.0327      297.03333      2611.2743      0.40101743     18421.214      348.50894     -4.3577412     -1.4864578e-13 -1.0725749e-13  348.50894     -5.1180654e-13
     32500   5354.5508      414.27801      4940.2728      305.45426      2338.6087      0.40101743     18421.214      345.23842     -4.3577412     -1.4901913e-13 -1.073409e-13   345.23842     -5.1272005e-13
     32750   5334.1289      404.09277      4930.0361      297.9445       3700.9329      0.40101743     18421.214      345.57009     -4.3577412     -1.4896024e-13 -1.0746529e-13  345.57009     -5.1285105e-13
     33000   5312.7094      388.53284      4924.1765      286.47191      2006.3449      0.40101743     18421.214      341.50462     -4.3577412     -1.4869844e-13 -1.0751406e-13  341.50462     -5.1242499e-13
     33250   5329.1774      392.72537      4936.4521      289.56313      4276.7932      0.40101743     18421.214      354.29694     -4.3577412     -1.4956591e-13 -1.0754146e-13  354.29694     -5.1421474e-13
     33500   5336.1932      409.64545      4926.5477      302.03859      2222.3293      0.40101743     18421.214      331.89759     -4.3577412     -1.4937813e-13 -1.073777e-13   331.89759     -5.1351167e-13
     33750   5339.1063      409.21831      4929.888       301.72365      2028.6196      0.40101743     18421.214      353.49713     -4.3577412     -1.4873168e-13 -1.0762567e-13  353.49713     -5.1271471e-13
     34000   5355.2393      438.47628      4916.7631      323.29605      4681.0107      0.40101743     18421.214      363.6751      -4.3577412     -1.4826142e-13 -1.0755055e-13  363.6751      -5.1162395e-13
     34250   5318.2704      390.27818      4927.9922      287.75877      3274.0487      0.40101743     18421.214      350.38132     -4.3577412     -1.5009135e-13 -1.0749138e-13  350.38132     -5.1516547e-13
     34500   5331.6567      404.8733       4926.7834      298.52001      3732.3157      0.40101743     18421.214      360.48374     -4.3577412     -1.4883789e-13 -1.0758012e-13  360.48374     -5.1283602e-13
     34750   5321.2721      413.63144      4907.6406      304.97753      4246.5029      0.40101743     18421.214      345.53876     -4.3577412     -1.4838501e-13 -1.0738221e-13  345.53876     -5.1153445e-13
     35000   5332.974       421.25176      4911.7222      310.59612      3572.2485      0.40101743     18421.214      350.94685     -4.3577412     -1.5118822e-13 -1.0729389e-13  350.94685     -5.1696423e-13
     35250   5327.5513      406.95208      4920.5992      300.05273      3474.327       0.40101743     18421.214      345.76583     -4.3577412     -1.4986038e-13 -1.0736846e-13  345.76583     -5.1445767e-13
     35500   5348.4712      385.52913      4962.9421      284.25722      2993.8338      0.40101743     18421.214      351.41724     -4.3577412     -1.4895282e-13 -1.0727437e-13  351.41724     -5.1245437e-13
     35750   5330.4584      403.90236      4926.556       297.80411      2863.2939      0.40101743     18421.214      347.73674     -4.3577412     -1.4946318e-13 -1.071539e-13   347.73674     -5.1323417e-13
     36000   5332.7887      417.40043      4915.3883      307.75647      2608.558       0.40101743     18421.214      347.53225     -4.3577412     -1.4845632e-13 -1.0723866e-13  347.53225     -5.1138996e-13
     36250   5322.7212      388.0979       4934.6233      286.15122      3055.4677      0.40101743     18421.214      339.94559     -4.3577412     -1.495799e-13  -1.073638e-13   339.94559     -5.1388739e-13
     36500   5352.9835      409.93337      4943.0502      302.25088      4078.4672      0.40101743     18421.214      363.06223     -4.3577412     -1.486154e-13  -1.0739101e-13  363.06223     -5.1201283e-13
     36750   5325.518       393.86075      4931.6573      290.40026      3682.1625      0.40101743     18421.214      354.34784     -4.3577412     -1.4663872e-13 -1.0728251e-13  354.34784     -5.0784245e-13
     37000   5317.4416      388.05677      4929.3848      286.12089      3004.6901      0.40101743     18421.214      351.1001      -4.3577412     -1.4695806e-13 -1.0724451e-13  351.1001      -5.0840513e-13
     37250   5370.6069      420.88273      4949.7242      310.32403      3712.8809      0.40101743     18421.214      347.96284     -4.3577412     -1.4830436e-13 -1.0744371e-13  347.96284     -5.1149614e-13
     37500   5316.899       391.08613      4925.8129      288.35449      3124.4136      0.40101743     18421.214      355.42572     -4.3577412     -1.4906631e-13 -1.0741101e-13  355.42572     -5.1295465e-13
     37750   5343.9949      418.124        4925.8709      308.28997      3142.4089      0.40101743     18421.214      344.65928     -4.3577412     -1.5012955e-13 -1.0738694e-13  344.65928     -5.1503298e-13
     38000   5295.3819      398.75478      4896.6271      294.00872      3956.7723      0.40101743     18421.214      355.53361     -4.3577412     -1.4894077e-13 -1.074943e-13   355.53361     -5.1287015e-13
     38250   5364.1479      438.31058      4925.8373      323.17388      1805.4695      0.40101743     18421.214      346.97667     -4.3577412     -1.4997626e-13 -1.0733559e-13  346.97667     -5.1462372e-13
     38500   5300.9664      402.89488      4898.0715      297.06128      3742.562       0.40101743     18421.214      357.46316     -4.3577412     -1.5015209e-13 -1.0725969e-13  357.46316     -5.1482357e-13
     38750   5337.4754      401.99146      4935.4839      296.39517      3211.2193      0.40101743     18421.214      351.17261     -4.3577412     -1.4764402e-13 -1.0714741e-13  351.17261     -5.0958286e-13
     39000   5323.7238      416.43455      4907.2892      307.04431      3514.842       0.40101743     18421.214      351.70189     -4.3577412     -1.4924539e-13 -1.0712376e-13  351.70189     -5.1273831e-13
     39250   5344.3346      403.64411      4940.6905      297.6137       1810.9289      0.40101743     18421.214      328.17301     -4.3577412     -1.4949679e-13 -1.0741635e-13  328.17301     -5.1382627e-13
     39500   5319.7774      380.10646      4939.671       280.25899      2356.3761      0.40101743     18421.214      344.77739     -4.3577412     -1.512387e-13  -1.0750543e-13  344.77739     -5.1748826e-13
     39750   5341.0437      416.68944      4924.3543      307.23224      4219.1452      0.40101743     18421.214      351.83238     -4.3577412     -1.4738401e-13 -1.0750109e-13  351.83238     -5.097702e-13 
     40000   5311.3135      399.99177      4911.3217      294.92077      2064.7766      0.40101743     18421.214      345.31298     -4.3577412     -1.480722e-13  -1.0760308e-13  345.31298     -5.1135058e-13
     40250   5370.9036      432.4838       4938.4198      318.8777       4430.5164      0.40101743     18421.214      362.06674     -4.3577412     -1.4619317e-13 -1.0773659e-13  362.06674     -5.0785951e-13
     40500   5353.7718      403.95394      4949.8179      297.84215      3059.0471      0.40101743     18421.214      350.41508     -4.3577412     -1.4727154e-13 -1.0776624e-13  350.41508     -5.1007554e-13
     40750   5363.2584      417.22641      4946.032       307.62816      3237.1678      0.40101743     18421.214      353.19717     -4.3577412     -1.4727341e-13 -1.0775437e-13  353.19717     -5.1005557e-13
     41000   5330.6425      404.59076      4926.0517      298.31169      2730.42        0.40101743     18421.214      347.45394     -4.3577412     -1.4644701e-13 -1.0767267e-13  347.45394     -5.0823937e-13
     41250   5347.2331      398.30459      4948.9285      293.67679      3056.8079      0.40101743     18421.214      349.4534      -4.3577412     -1.4786478e-13 -1.0756239e-13  349.4534      -5.1085433e-13
     41500   5307.4054      415.54165      4891.8637      306.38596      4147.9828      0.40101743     18421.214      355.1778      -4.3577412     -1.4910672e-13 -1.0720825e-13  355.1778      -5.1262995e-13
     41750   5324.7522      389.04151      4935.7107      286.84695      3807.7687      0.40101743     18421.214      353.12389     -4.3577412     -1.498779e-13  -1.0674425e-13  353.12389     -5.132443e-13 
     42000   5346.1918      395.18734      4951.0045      291.37838      3675.2966      0.40101743     18421.214      353.73988     -4.3577412     -1.5001047e-13 -1.0718889e-13  353.73988     -5.1439872e-13
     42250   5421.8304      456.0516       4965.7788      336.25464      3569.8146      0.40101743     18421.214      340.58989     -4.3577412     -1.4939646e-13 -1.0731918e-13  340.58989     -5.1343127e-13
     42500   5326.0861      384.88519      4941.2009      283.78243      3246.2654      0.40101743     18421.214      345.28911     -4.3577412     -1.5151628e-13 -1.074297e-13   345.28911     -5.1789197e-13
     42750   5358.0766      427.42576      4930.6509      315.14832      2152.1897      0.40101743     18421.214      335.97779     -4.3577412     -1.4975053e-13 -1.0751586e-13  335.97779     -5.1453278e-13
     43000   5339.4161      413.0495       4926.3666      304.54846      2688.1554      0.40101743     18421.214      349.04937     -4.3577412     -1.4790151e-13 -1.0749152e-13  349.04937     -5.1078606e-13
     43250   5326.3903      379.54842      4946.8419      279.84754      1242.1098      0.40101743     18421.214      336.89453     -4.3577412     -1.4803182e-13 -1.0756037e-13  336.89453     -5.1118438e-13
     43500   5328.2271      394.16031      4934.0668      290.62113      4875.7697      0.40101743     18421.214      358.47515     -4.3577412     -1.4809095e-13 -1.0741059e-13  358.47515     -5.1100308e-13
     43750   5333.7531      401.91879      4931.8343      296.34159      3421.9376      0.40101743     18421.214      348.4087      -4.3577412     -1.4952755e-13 -1.0743467e-13  348.4087      -5.1392443e-13
     44000   5339.4454      410.794        4928.6514      302.88544      4204.3381      0.40101743     18421.214      360.93895     -4.3577412     -1.4804216e-13 -1.0751557e-13  360.93895     -5.1111546e-13
     44250   5325.7517      407.39884      4918.3528      300.38213      3289.834       0.40101743     18421.214      351.37906     -4.3577412     -1.48021e-13   -1.0759347e-13  351.37906     -5.1122894e-13
     44500   5378.4106      446.45989      4931.9507      329.18251      2977.9135      0.40101743     18421.214      346.91668     -4.3577412     -1.4726088e-13 -1.0753783e-13  346.91668     -5.0959741e-13
     44750   5331.7875      396.26978      4935.5177      292.17648      2397.1991      0.40101743     18421.214      343.99415     -4.3577412     -1.4799271e-13 -1.0754517e-13  343.99415     -5.1107577e-13
     45000   5330.591       403.30765      4927.2834      297.36562      1936.2786      0.40101743     18421.214      342.33505     -4.3577412     -1.5041479e-13 -1.0753903e-13  342.33505     -5.1590764e-13
     45250   5320.2634      398.99676      4921.2666      294.18713      4935.5209      0.40101743     18421.214      365.99481     -4.3577412     -1.4956573e-13 -1.0771725e-13  365.99481     -5.1456596e-13
     45500   5326.0013      403.0324       4922.9689      297.16267      3672.1064      0.40101743     18421.214      353.24818     -4.3577412     -1.49244e-13   -1.076719e-13   353.24818     -5.1383181e-13
     45750   5352.0657      422.52887      4929.5369      311.53776      3374.2301      0.40101743     18421.214      353.71733     -4.3577412     -1.4759108e-13 -1.0761488e-13  353.71733     -5.1041193e-13
     46000   5321.2881      394.70332      4926.5848      291.02151      3918.3         0.40101743     18421.214      345.56916     -4.3577412     -1.4902319e-13 -1.0772147e-13  345.56916     -5.134893e-13 
     46250   5343.2399      416.0556       4927.1843      306.76491      3252.3309      0.40101743     18421.214      357.19003     -4.3577412     -1.4983786e-13 -1.0773702e-13  357.19003     -5.1514975e-13
     46500   5359.3403      439.90303      4919.4372      324.34802      3085.1229      0.40101743     18421.214      350.28428     -4.3577412     -1.4932403e-13 -1.077839e-13   350.28428     -5.1421584e-13
     46750   5391.2256      450.20824      4941.0174      331.94623      3795.7835      0.40101743     18421.214      362.11502     -4.3577412     -1.4753654e-13 -1.0772045e-13  362.11502     -5.1051397e-13
     47000   5339.1216      405.37109      4933.7505      298.88703      2949.3414      0.40101743     18421.214      349.93424     -4.3577412     -1.4833972e-13 -1.0744946e-13  349.93424     -5.1157836e-13
     47250   5361.3912      398.75177      4962.6394      294.0065       3617.2701      0.40101743     18421.214      346.04063     -4.3577412     -1.4903593e-13 -1.0740139e-13  346.04063     -5.1287465e-13
     47500   5343.6277      424.34422      4919.2835      312.87625      2343.5022      0.40101743     18421.214      339.84736     -4.3577412     -1.4904561e-13 -1.0742672e-13  339.84736     -5.1294467e-13
     47750   5360.4365      412.56639      4947.8701      304.19225      3492.1206      0.40101743     18421.214      357.73748     -4.3577412     -1.4818035e-13 -1.0749943e-13  357.73748     -5.1135956e-13
     48000   5351.1375      407.37206      4943.7654      300.36238      3319.3682      0.40101743     18421.214      348.45483     -4.3577412     -1.4791469e-13 -1.0744904e-13  348.45483     -5.1072746e-13
     48250   5325.3445      416.65938      4908.6851      307.21008      4704.9146      0.40101743     18421.214      364.00563     -4.3577412     -1.491359e-13  -1.075925e-13   364.00563     -5.1345679e-13
     48500   5358.1236      418.44505      4939.6786      308.52669      3142.293       0.40101743     18421.214      347.57751     -4.3577412     -1.4918081e-13 -1.0752292e-13  347.57751     -5.1340746e-13
     48750   5319.0593      397.58107      4921.4783      293.14331      3008.5791      0.40101743     18421.214      348.38541     -4.3577412     -1.4790864e-13 -1.0735249e-13  348.38541     -5.1052226e-13
     49000   5352.1482      434.59574      4917.5525      320.43487      2932.1372      0.40101743     18421.214      349.23836     -4.3577412     -1.4902307e-13 -1.0738937e-13  349.23836     -5.1282489e-13
     49250   5324.0996      397.90429      4926.1954      293.38163      3468.9215      0.40101743     18421.214      350.02124     -4.3577412     -1.4934303e-13 -1.0733997e-13  350.02124     -5.1336599e-13
     49500   5335.5339      410.20791      4925.326       302.4533       2694.6997      0.40101743     18421.214      346.1742      -4.3577412     -1.5058696e-13 -1.0756241e-13  346.1742      -5.1629873e-13
     49750   5347.4452      416.96504      4930.4802      307.43545      3067.9432      0.40101743     18421.214      351.65903     -4.3577412     -1.5044986e-13 -1.0772728e-13  351.65903     -5.1635428e-13
     50000   5363.6955      429.10802      4934.5875      316.38868      4621.1612      0.40101743     18421.214      355.46559     -4.3577412     -1.4843009e-13 -1.0770797e-13  355.46559     -5.1227613e-13
     50250   5362.9825      411.22172      4951.7608      303.2008       3248.5499      0.40101743     18421.214      354.23427     -4.3577412     -1.4955148e-13 -1.0774632e-13  354.23427     -5.1459562e-13
     50500   5324.5972      399.14142      4925.4558      294.29379      2485.83        0.40101743     18421.214      351.408       -4.3577412     -1.4798622e-13 -1.0761779e-13  351.408       -5.1120801e-13
     50750   5324.6685      395.67024      4928.9983      291.73443      3388.4553      0.40101743     18421.214      351.48916     -4.3577412     -1.5013465e-13 -1.07638e-13    351.48916     -5.155453e-13 
     51000   5330.0364      391.76762      4938.2687      288.85697      2918.9954      0.40101743     18421.214      354.76476     -4.3577412     -1.4819168e-13 -1.0775155e-13  354.76476     -5.1188645e-13
     51250   5336.5916      405.08867      4931.5029      298.6788       2900.1372      0.40101743     18421.214      347.71199     -4.3577412     -1.4632356e-13 -1.0767955e-13  347.71199     -5.0800622e-13
     51500   5362.6542      439.78638      4922.8678      324.26202      2766.1526      0.40101743     18421.214      342.72332     -4.3577412     -1.4753177e-13 -1.0764834e-13  342.72332     -5.1036022e-13
     51750   5353.7358      414.45499      4939.2808      305.58475      4194.2383      0.40101743     18421.214      351.11495     -4.3577412     -1.4949285e-13 -1.0754844e-13  351.11495     -5.1408258e-13
     52000   5315.5494      366.22199      4949.3274      270.02173      3048.5132      0.40101743     18421.214      348.48256     -4.3577412     -1.491411e-13  -1.0762357e-13  348.48256     -5.1352932e-13
     52250   5373.3953      414.85283      4958.5425      305.87808      4354.3253      0.40101743     18421.214      354.20646     -4.3577412     -1.4900223e-13 -1.0760225e-13  354.20646     -5.1320895e-13
     52500   5353.4425      410.33185      4943.1107      302.54468      3078.34        0.40101743     18421.214      352.14505     -4.3577412     -1.4735031e-13 -1.0734815e-13  352.14505     -5.0939691e-13
     52750   5334.8984      404.20412      4930.6943      298.02661      2917.7562      0.40101743     18421.214      353.20261     -4.3577412     -1.4686952e-13 -1.0723617e-13  353.20261     -5.0821138e-13
     53000   5332.7753      415.94273      4916.8326      306.68168      4321.1314      0.40101743     18421.214      353.54808     -4.3577412     -1.4727155e-13 -1.0740829e-13  353.54808     -5.0935968e-13
     53250   5377.9566      407.97716      4969.9794      300.80853      1753.8258      0.40101743     18421.214      349.34939     -4.3577412     -1.4847654e-13 -1.0699602e-13  349.34939     -5.1094511e-13
     53500   5342.272       414.91324      4927.3587      305.92263      3090.1727      0.40101743     18421.214      353.58436     -4.3577412     -1.4963007e-13 -1.071255e-13   353.58436     -5.1351113e-13
     53750   5329.6529      402.5184       4927.1345      296.7837       3581.6787      0.40101743     18421.214      365.00479     -4.3577412     -1.46744e-13   -1.0713229e-13  365.00479     -5.0775258e-13
     54000   5349.6129      408.94192      4940.671       301.51986      3253.6019      0.40101743     18421.214      349.22981     -4.3577412     -1.4848248e-13 -1.0733568e-13  349.22981     -5.1163632e-13
     54250   5322.1686      402.29651      4919.8721      296.6201       4270.0371      0.40101743     18421.214      357.3063      -4.3577412     -1.4807028e-13 -1.0734765e-13  357.3063      -5.1083586e-13
     54500   5299.3594      381.78178      4917.5777      281.49423      3140.3695      0.40101743     18421.214      354.52195     -4.3577412     -1.4796747e-13 -1.0735835e-13  354.52195     -5.1065164e-13
     54750   5333.7744      407.76719      4926.0072      300.65372      3920.1754      0.40101743     18421.214      338.48809     -4.3577412     -1.4883964e-13 -1.0724259e-13  338.48809     -5.1216445e-13
     55000   5330.8416      414.24814      4916.5935      305.43224      3259.5944      0.40101743     18421.214      355.14513     -4.3577412     -1.4784004e-13 -1.0723606e-13  355.14513     -5.1015218e-13
     55250   5336.6018      414.6641       4921.9377      305.73893      2050.7992      0.40101743     18421.214      342.63136     -4.3577412     -1.5040826e-13 -1.0736502e-13  342.63136     -5.1554657e-13
     55500   5346.1875      404.18019      4942.0073      298.00897      3155.4417      0.40101743     18421.214      354.477       -4.3577412     -1.4927475e-13 -1.0740625e-13  354.477       -5.13362e-13  
     55750   5356.2067      428.0285       4928.1782      315.59273      4169.2997      0.40101743     18421.214      361.40883     -4.3577412     -1.4985337e-13 -1.0734977e-13  361.40883     -5.1440629e-13
     56000   5331.6131      406.05023      4925.5628      299.38778      5070.3754      0.40101743     18421.214      361.69106     -4.3577412     -1.485845e-13  -1.0713125e-13  361.69106     -5.1143148e-13
     56250   5307.6084      393.03947      4914.569       289.79472      2910.5998      0.40101743     18421.214      344.16302     -4.3577412     -1.4949205e-13 -1.0700505e-13  344.16302     -5.1299421e-13
     56500   5375.854       420.28448      4955.5695      309.88293      3271.5538      0.40101743     18421.214      356.15939     -4.3577412     -1.4960529e-13 -1.0708407e-13  356.15939     -5.1337872e-13
     56750   5305.327       391.90451      4913.4225      288.95789      4276.8963      0.40101743     18421.214      363.02945     -4.3577412     -1.4876615e-13 -1.072276e-13   363.02945     -5.1198751e-13
     57000   5346.9441      396.38174      4950.5623      292.25903      2439.7081      0.40101743     18421.214      341.36513     -4.3577412     -1.4729522e-13 -1.0737006e-13  341.36513     -5.0933056e-13
     57250   5340.4558      397.34279      4943.113       292.96763      3149.8243      0.40101743     18421.214      345.67177     -4.3577412     -1.4966899e-13 -1.0709499e-13  345.67177     -5.1352797e-13
     57500   5336.23        392.40909      4943.8209      289.32993      2901.9548      0.40101743     18421.214      347.03138     -4.3577412     -1.5029779e-13 -1.0719644e-13  347.03138     -5.1498847e-13
     57750   5338.5311      394.69953      4943.8316      291.01871      4146.2988      0.40101743     18421.214      361.71364     -4.3577412     -1.502468e-13  -1.073264e-13   361.71364     -5.151464e-13 
     58000   5370.7164      411.29417      4959.4222      303.25422      3202.033       0.40101743     18421.214      363.27928     -4.3577412     -1.4840836e-13 -1.0746899e-13  363.27928     -5.1175469e-13
     58250   5353.1963      426.4457       4926.7506      314.4257       3383.9802      0.40101743     18421.214      351.05038     -4.3577412     -1.4978662e-13 -1.073899e-13   351.05038     -5.1435303e-13
     58500   5358.8271      412.02994      4946.7971      303.79672      3106.045       0.40101743     18421.214      341.54307     -4.3577412     -1.5039672e-13 -1.072322e-13   341.54307     -5.1525786e-13
     58750   5334.41        400.03871      4934.3713      294.95538      3719.5287      0.40101743     18421.214      359.27496     -4.3577412     -1.4851057e-13 -1.0728772e-13  359.27496     -5.1159657e-13
     59000   5346.4684      423.44211      4923.0262      312.21111      3883.8296      0.40101743     18421.214      355.93952     -4.3577412     -1.4754532e-13 -1.0741043e-13  355.93952     -5.099115e-13 
     59250   5315.2615      395.16617      4920.0953      291.36277      3917.2187      0.40101743     18421.214      344.90735     -4.3577412     -1.4863872e-13 -1.0698309e-13  344.90735     -5.1124363e-13
     59500   5364.5874      414.26503      4950.3224      305.44469      3113.7019      0.40101743     18421.214      341.70369     -4.3577412     -1.4932328e-13 -1.0691894e-13  341.70369     -5.1248443e-13
     59750   5306.9881      400.08759      4906.9005      294.99142      4140.0997      0.40101743     18421.214      350.49826     -4.3577412     -1.4954791e-13 -1.0729562e-13  350.49826     -5.1368707e-13
     60000   5350.086       416.76258      4933.3234      307.28617      3790.1239      0.40101743     18421.214      342.77483     -4.3577412     -1.5164725e-13 -1.0746662e-13  342.77483     -5.1822773e-13
     60250   5369.3289      421.82277      4947.5061      311.01714      2571.899       0.40101743     18421.214      351.46407     -4.3577412     -1.478856e-13  -1.0742461e-13  351.46407     -5.1062043e-13
     60500   5332.0699      393.61528      4938.4546      290.21928      3275.9164      0.40101743     18421.214      344.98785     -4.3577412     -1.5004927e-13 -1.0739077e-13  344.98785     -5.1488007e-13
     60750   5326.6966      406.11445      4920.5822      299.43512      3018.8204      0.40101743     18421.214      350.31819     -4.3577412     -1.5054243e-13 -1.0725797e-13  350.31819     -5.156008e-13 
     61000   5331.1419      406.0775       4925.0644      299.40788      3066.8126      0.40101743     18421.214      351.31011     -4.3577412     -1.5016326e-13 -1.0714662e-13  351.31011     -5.1461977e-13
     61250   5362.2338      421.80902      4940.4247      311.007        3052.8506      0.40101743     18421.214      344.54763     -4.3577412     -1.5007477e-13 -1.0716965e-13  344.54763     -5.1448885e-13
     61500   5359.5509      400.6955       4958.8554      295.43964      3574.107       0.40101743     18421.214      348.53617     -4.3577412     -1.4934827e-13 -1.0693246e-13  348.53617     -5.1256146e-13
     61750   5338.3719      393.15298      4945.2189      289.87841      1914.0983      0.40101743     18421.214      349.34685     -4.3577412     -1.5113644e-13 -1.0719578e-13  349.34685     -5.1666445e-13
     62000   5360.4756      416.53969      4943.9359      307.12183      2637.2168      0.40101743     18421.214      334.21139     -4.3577412     -1.4988535e-13 -1.0742693e-13  334.21139     -5.1462457e-13
     62250   5335.7115      418.17634      4917.5351      308.32857      2269.0047      0.40101743     18421.214      340.12273     -4.3577412     -1.4862842e-13 -1.0754783e-13  340.12273     -5.1235251e-13
     62500   5351.6089      405.35062      4946.2583      298.87194      3648.5397      0.40101743     18421.214      361.38909     -4.3577412     -1.4783385e-13 -1.075114e-13   361.38909     -5.106905e-13 
     62750   5353.5662      434.29395      4919.2722      320.21235      3265.2378      0.40101743     18421.214      345.62226     -4.3577412     -1.5049241e-13 -1.0759144e-13  345.62226     -5.1616771e-13
     63000   5383.643       429.49589      4954.1471      316.67466      4637.9354      0.40101743     18421.214      363.43218     -4.3577412     -1.4901787e-13 -1.0762992e-13  363.43218     -5.1329557e-13
     63250   5297.183       393.69565      4903.4874      290.27853      3504.4089      0.40101743     18421.214      347.08219     -4.3577412     -1.5090998e-13 -1.0769609e-13  347.08219     -5.1721214e-13
     63500   5299.8261      381.72408      4918.102       281.45169      3001.9678      0.40101743     18421.214      349.74384     -4.3577412     -1.4990813e-13 -1.0754046e-13  349.74384     -5.1489716e-13
     63750   5339.2564      418.77628      4920.4801      308.77091      2608.6483      0.40101743     18421.214      341.78222     -4.3577412     -1.5027897e-13 -1.0747633e-13  341.78222     -5.1551061e-13
     64000   5294.1795      378.20801      4915.9714      278.85923      2127.7096      0.40101743     18421.214      350.26967     -4.3577412     -1.4782093e-13 -1.0748056e-13  350.26967     -5.1060298e-13
     64250   5323.602       397.99892      4925.6031      293.45141      2707.8731      0.40101743     18421.214      342.14378     -4.3577412     -1.4914002e-13 -1.0746669e-13  342.14378     -5.1321342e-13
     64500   5341.5489      405.63126      4935.9177      299.07886      3530.1437      0.40101743     18421.214      338.83907     -4.3577412     -1.4905546e-13 -1.077718e-13   338.83907     -5.1365451e-13
     64750   5332.7407      403.32946      4929.4113      297.38171      4755.8284      0.40101743     18421.214      367.23412     -4.3577412     -1.4883596e-13 -1.076212e-13   367.23412     -5.1291432e-13
     65000   5355.1978      412.46838      4942.7294      304.11999      3704.6686      0.40101743     18421.214      356.42004     -4.3577412     -1.4906759e-13 -1.0764208e-13  356.42004     -5.1341933e-13
     65250   5335.1308      404.73802      4930.3928      298.42026      3679.8861      0.40101743     18421.214      347.5113      -4.3577412     -1.4658796e-13 -1.0771492e-13  347.5113      -5.0860575e-13
     65500   5352.1839      398.7453       4953.4386      294.00173      3684.3011      0.40101743     18421.214      350.941       -4.3577412     -1.4762462e-13 -1.077546e-13   350.941       -5.1075843e-13
     65750   5377.4527      416.76343      4960.6892      307.2868       4103.4377      0.40101743     18421.214      360.91045     -4.3577412     -1.4885485e-13 -1.07788e-13    360.91045     -5.1328572e-13
     66000   5321.0796      398.31889      4922.7607      293.68733      4758.8345      0.40101743     18421.214      359.30229     -4.3577412     -1.4912876e-13 -1.0781135e-13  359.30229     -5.1388022e-13
     66250   5339.7432      406.5274       4933.2158      299.7396       4566.7978      0.40101743     18421.214      367.52818     -4.3577412     -1.4999165e-13 -1.0766075e-13  367.52818     -5.1530481e-13
     66500   5344.6037      415.44566      4929.1581      306.31519      4894.8827      0.40101743     18421.214      358.15776     -4.3577412     -1.5126981e-13 -1.0757997e-13  358.15776     -5.1769956e-13
     66750   5352.2725      430.17348      4922.099       317.17426      2645.4228      0.40101743     18421.214      339.06906     -4.3577412     -1.4969391e-13 -1.0754034e-13  339.06906     -5.1446849e-13
     67000   5343.8017      416.73719      4927.0645      307.26746      1791.3173      0.40101743     18421.214      330.98663     -4.3577412     -1.4942991e-13 -1.0729962e-13  330.98663     -5.1345907e-13
     67250   5344.8795      395.93253      4948.947       291.92782      3933.0431      0.40101743     18421.214      363.11849     -4.3577412     -1.4853852e-13 -1.0718188e-13  363.11849     -5.114408e-13 
     67500   5294.4382      374.85687      4919.5814      276.38838      3249.1122      0.40101743     18421.214      353.31048     -4.3577412     -1.4753313e-13 -1.0740473e-13  353.31048     -5.0987573e-13
     67750   5370.841       400.5259       4970.3151      295.31459      2232.461       0.40101743     18421.214      343.69807     -4.3577412     -1.5031275e-13 -1.0732573e-13  343.69807     -5.1527696e-13
     68000   5333.1902      397.93208      4935.2581      293.40213      2578.4123      0.40101743     18421.214      353.20581     -4.3577412     -1.5018342e-13 -1.0741464e-13  353.20581     -5.151961e-13 
     68250   5352.206       418.61491      4933.591       308.65193      3023.6701      0.40101743     18421.214      348.76983     -4.3577412     -1.4926044e-13 -1.0758985e-13  348.76983     -5.137006e-13 
     68500   5342.8558      404.79655      4938.0592      298.46342      3161.0974      0.40101743     18421.214      348.18303     -4.3577412     -1.489506e-13  -1.0774429e-13  348.18303     -5.1338978e-13
     68750   5346.7566      400.51875      4946.2378      295.30932      4391.2736      0.40101743     18421.214      358.22754     -4.3577412     -1.4777363e-13 -1.0762997e-13  358.22754     -5.108072e-13 
     69000   5399.7175      458.73703      4940.9805      338.23465      3879.1407      0.40101743     18421.214      357.08844     -4.3577412     -1.467341e-13  -1.0761364e-13  357.08844     -5.0869548e-13
     69250   5332.2128      394.62476      4937.588       290.96358      3206.3064      0.40101743     18421.214      365.75786     -4.3577412     -1.4698331e-13 -1.0730728e-13  365.75786     -5.0858119e-13
     69500   5332.0989      405.5981       4926.5008      299.05441      2601.8443      0.40101743     18421.214      347.12282     -4.3577412     -1.4733545e-13 -1.0733894e-13  347.12282     -5.0934879e-13
     69750   5358.7879      409.89655      4948.8914      302.22373      2794.5298      0.40101743     18421.214      334.96357     -4.3577412     -1.4702807e-13 -1.0750988e-13  334.96357     -5.0907591e-13
     70000   5355.7326      406.13933      4949.5933      299.45347      2612.9518      0.40101743     18421.214      348.63826     -4.3577412     -1.4767038e-13 -1.0760447e-13  348.63826     -5.1054969e-13
     70250   5356.0035      406.16801      4949.8355      299.47461      2241.9649      0.40101743     18421.214      349.4231      -4.3577412     -1.4747522e-13 -1.0753444e-13  349.4231      -5.1001932e-13
     70500   5362.2481      425.2942       4936.9539      313.57668      3511.2921      0.40101743     18421.214      371.35336     -4.3577412     -1.4722191e-13 -1.0722827e-13  371.35336     -5.0890037e-13
     70750   5350.6889      424.35528      4926.3336      312.8844       3685.2297      0.40101743     18421.214      353.79572     -4.3577412     -1.4761117e-13 -1.0709031e-13  353.79572     -5.0940296e-13
     71000   5342.8397      411.18686      4931.6528      303.1751       3182.9615      0.40101743     18421.214      348.17021     -4.3577412     -1.484835e-13  -1.0716666e-13  348.17021     -5.1130033e-13
     71250   5366.3439      418.2073       4948.1366      308.35139      3313.1912      0.40101743     18421.214      358.94329     -4.3577412     -1.4850129e-13 -1.0724861e-13  358.94329     -5.114998e-13 
     71500   5346.8862      408.69634      4938.1898      301.3388       2524.5766      0.40101743     18421.214      343.18881     -4.3577412     -1.4813101e-13 -1.0742082e-13  343.18881     -5.1110367e-13
     71750   5363.825       430.46485      4933.3602      317.38909      2303.6336      0.40101743     18421.214      354.69929     -4.3577412     -1.4765664e-13 -1.0742021e-13  354.69929     -5.101537e-13 
     72000   5337.3046      399.18846      4938.1161      294.32848      3261.2141      0.40101743     18421.214      350.42859     -4.3577412     -1.4926359e-13 -1.075589e-13   350.42859     -5.1364498e-13
     72250   5354.1483      411.82275      4942.3255      303.64396      4543.8976      0.40101743     18421.214      358.64807     -4.3577412     -1.4764065e-13 -1.0763515e-13  358.64807     -5.105516e-13 
     72500   5325.2464      416.04333      4909.2031      306.75586      2941.9636      0.40101743     18421.214      340.5603      -4.3577412     -1.4839546e-13 -1.0771439e-13  340.5603      -5.122197e-13 
     72750   5314.3527      408.5337       4905.819       301.21888      4469.5681      0.40101743     18421.214      355.43782     -4.3577412     -1.4874341e-13 -1.0773801e-13  355.43782     -5.1296283e-13
     73000   5383.6229      427.5768       4956.0461      315.25968      2893.8152      0.40101743     18421.214      347.50551     -4.3577412     -1.4930119e-13 -1.0777643e-13  347.50551     -5.1415524e-13
     73250   5353.3381      414.12361      4939.2145      305.34042      4276.6011      0.40101743     18421.214      355.10946     -4.3577412     -1.4940802e-13 -1.0777291e-13  355.10946     -5.1436185e-13
     73500   5350.3892      419.28325      4931.1059      309.1447       2620.9656      0.40101743     18421.214      346.69903     -4.3577412     -1.4833833e-13 -1.0771662e-13  346.69903     -5.1210989e-13
     73750   5365.252       432.53314      4932.7188      318.91408      3036.0068      0.40101743     18421.214      337.21987     -4.3577412     -1.4962694e-13 -1.0776663e-13  337.21987     -5.1478714e-13
     74000   5333.619       423.9494       4909.6696      312.58514      3721.2689      0.40101743     18421.214      341.3358      -4.3577412     -1.4978809e-13 -1.0765955e-13  341.3358      -5.1489529e-13
     74250   5324.8379      393.6807       4931.1572      290.26751      3584.1083      0.40101743     18421.214      354.72838     -4.3577412     -1.4705944e-13 -1.0764398e-13  354.72838     -5.0940684e-13
     74500   5310.6754      390.22981      4920.4456      287.72311      3773.1941      0.40101743     18421.214      355.10899     -4.3577412     -1.4792975e-13 -1.0742373e-13  355.10899     -5.1070697e-13
     74750   5329.654       405.52337      4924.1306      298.99931      3688.3438      0.40101743     18421.214      352.66573     -4.3577412     -1.4916698e-13 -1.072781e-13   352.66573     -5.1289016e-13
     75000   5314.2373      395.21979      4919.0175      291.40231      4162.0077      0.40101743     18421.214      357.76588     -4.3577412     -1.511429e-13  -1.0741392e-13  357.76588     -5.1711363e-13
     75250   5348.9241      411.90801      4937.0161      303.70682      2117.1106      0.40101743     18421.214      343.27402     -4.3577412     -1.4958371e-13 -1.0742428e-13  343.27402     -5.1401599e-13
     75500   5363.1534      419.88141      4943.272       309.58574      2245.3693      0.40101743     18421.214      346.63951     -4.3577412     -1.4946184e-13 -1.0746662e-13  346.63951     -5.1385692e-13
     75750   5314.4348      398.43685      4915.9979      293.7743       3940.8181      0.40101743     18421.214      353.63481     -4.3577412     -1.4860749e-13 -1.0740016e-13  353.63481     -5.1201529e-13
[...]
    477750   5311.8697      403.1853       4908.6844      297.27541      4005.5119      0.40101743     18421.214      355.35313     -4.3577412     -1.4871172e-13 -1.0726648e-13  355.35313     -5.119564e-13 
    478000   5356.6411      384.45651      4972.1845      283.46636      2068.1643      0.40101743     18421.214      344.6425      -4.3577412     -1.4904732e-13 -1.0710935e-13  344.6425      -5.1231333e-13
    478250   5328.5026      408.10179      4920.4008      300.90042      4239.6294      0.40101743     18421.214      357.68908     -4.3577412     -1.4959799e-13 -1.0704873e-13  357.68908     -5.1329344e-13
    478500   5338.2249      407.68204      4930.5429      300.59094      3979.3678      0.40101743     18421.214      342.62045     -4.3577412     -1.4882239e-13 -1.0708363e-13  342.62045     -5.1181205e-13
    478750   5359.3608      417.44093      4941.9199      307.78633      4479.5297      0.40101743     18421.214      354.01705     -4.3577412     -1.4853671e-13 -1.0733347e-13  354.01705     -5.1174036e-13
    479000   5359.7862      419.91657      4939.8696      309.61167      3356.0336      0.40101743     18421.214      358.99888     -4.3577412     -1.4847736e-13 -1.0745075e-13  358.99888     -5.1185623e-13
    479250   5299.3816      381.08835      4918.2933      280.98295      2991.0095      0.40101743     18421.214      352.6422      -4.3577412     -1.503774e-13  -1.0750056e-13  352.6422      -5.1575591e-13
    479500   5318.2226      404.34587      4913.8767      298.13112      3565.8232      0.40101743     18421.214      346.98424     -4.3577412     -1.5001423e-13 -1.0762717e-13  346.98424     -5.152828e-13 
    479750   5330.1801      381.85199      4948.3281      281.546        1316.5669      0.40101743     18421.214      338.67027     -4.3577412     -1.5035812e-13 -1.0761148e-13  338.67027     -5.1593919e-13
    480000   5359.6451      429.22429      4930.4208      316.47441      2848.6833      0.40101743     18421.214      344.37686     -4.3577412     -1.5030126e-13 -1.0755583e-13  344.37686     -5.1571417e-13
    480250   5370.3838      399.30597      4971.0778      294.41511      4234.7053      0.40101743     18421.214      370.27419     -4.3577412     -1.4909938e-13 -1.0743179e-13  370.27419     -5.1306235e-13
    480500   5365.9844      426.66618      4939.3182      314.58827      4214.9369      0.40101743     18421.214      358.23839     -4.3577412     -1.486969e-13  -1.0739402e-13  358.23839     -5.1218184e-13
    480750   5347.354       396.24253      4951.1115      292.15639      2329.1795      0.40101743     18421.214      354.397       -4.3577412     -1.486932e-13  -1.0745038e-13  354.397       -5.1228716e-13
    481000   5297.0921      393.35034      4903.7417      290.02393      3986.3798      0.40101743     18421.214      352.78384     -4.3577412     -1.4822671e-13 -1.0747003e-13  352.78384     -5.1139348e-13
    481250   5358.3057      418.7544       4939.5513      308.75478      1980.3893      0.40101743     18421.214      346.65707     -4.3577412     -1.4886879e-13 -1.0749478e-13  346.65707     -5.1272714e-13
    481500   5374.5951      420.60868      4953.9865      310.12197      4599.8166      0.40101743     18421.214      361.17298     -4.3577412     -1.4877966e-13 -1.0739696e-13  361.17298     -5.1235325e-13
    481750   5365.487       422.22738      4943.2596      311.31547      3833.7218      0.40101743     18421.214      354.29348     -4.3577412     -1.4992029e-13 -1.0731982e-13  354.29348     -5.1448023e-13
    482000   5363.383       429.82837      4933.5546      316.9198       4259.9897      0.40101743     18421.214      363.81155     -4.3577412     -1.5011737e-13 -1.0753452e-13  363.81155     -5.1530378e-13
    482250   5317.7227      386.31825      4931.4045      284.83905      2858.1773      0.40101743     18421.214      355.08222     -4.3577412     -1.4920394e-13 -1.0764451e-13  355.08222     -5.1369689e-13
    482500   5331.0389      407.90956      4923.1294      300.75869      3155.967       0.40101743     18421.214      351.41061     -4.3577412     -1.4910771e-13 -1.0758628e-13  351.41061     -5.1338797e-13
    482750   5340.5354      410.2047       4930.3307      302.45094      3472.6983      0.40101743     18421.214      346.53068     -4.3577412     -1.5024937e-13 -1.0750229e-13  346.53068     -5.1550333e-13
    483000   5377.9656      442.55185      4935.4137      326.30104      4351.2799      0.40101743     18421.214      367.34671     -4.3577412     -1.4979635e-13 -1.0749279e-13  367.34671     -5.1457829e-13
    483250   5346.277       411.49762      4934.7794      303.40423      3704.7513      0.40101743     18421.214      354.02659     -4.3577412     -1.4986133e-13 -1.0744624e-13  354.02659     -5.1461514e-13
    483500   5339.2374      393.15357      4946.0838      289.87885      3669.1447      0.40101743     18421.214      356.22194     -4.3577412     -1.4807863e-13 -1.0728039e-13  356.22194     -5.1071804e-13
    483750   5333.9861      401.25495      4932.7311      295.85213      2800.0623      0.40101743     18421.214      346.19908     -4.3577412     -1.4915536e-13 -1.0727717e-13  346.19908     -5.1286506e-13
    484000   5364.0453      414.5894       4949.4559      305.68385      4860.5826      0.40101743     18421.214      356.06967     -4.3577412     -1.4917753e-13 -1.0725585e-13  356.06967     -5.1286676e-13
    484250   5321.6859      411.76491      4909.921       303.6013       3208.7669      0.40101743     18421.214      344.48142     -4.3577412     -1.4921529e-13 -1.073157e-13   344.48142     -5.1306199e-13
    484500   5347.2826      406.65746      4940.6252      299.8355       3592.4858      0.40101743     18421.214      344.62606     -4.3577412     -1.4948805e-13 -1.0745688e-13  344.62606     -5.1388988e-13
    484750   5324.987       400.89878      4924.0882      295.58952      3527.6364      0.40101743     18421.214      355.70572     -4.3577412     -1.4877548e-13 -1.0749239e-13  355.70572     -5.1253573e-13
    485000   5358.1702      428.14296      4930.0273      315.67712      2416.3568      0.40101743     18421.214      333.21204     -4.3577412     -1.4973832e-13 -1.0765937e-13  333.21204     -5.1479537e-13
    485250   5357.7087      400.65553      4957.0532      295.41017      3221.9015      0.40101743     18421.214      354.69471     -4.3577412     -1.4762898e-13 -1.0769436e-13  354.69471     -5.1064668e-13
    485500   5357.9371      398.00963      4959.9275      293.45931      4220.4481      0.40101743     18421.214      356.10686     -4.3577412     -1.4731665e-13 -1.0773644e-13  356.10686     -5.1010617e-13
    485750   5328.2833      413.25148      4915.0318      304.69738      3081.3495      0.40101743     18421.214      352.99885     -4.3577412     -1.4971827e-13 -1.0783106e-13  352.99885     -5.1509866e-13
    486000   5351.2099      422.1395       4929.0704      311.25067      4274.3919      0.40101743     18421.214      361.10112     -4.3577412     -1.4844427e-13 -1.0769639e-13  361.10112     -5.1228132e-13
    486250   5327.7685      406.57248      4921.196       299.77284      2440.5245      0.40101743     18421.214      350.04412     -4.3577412     -1.4900805e-13 -1.0764786e-13  350.04412     -5.1331182e-13
    486500   5318.76        410.9918       4907.7681      303.03128      3832.8964      0.40101743     18421.214      346.56656     -4.3577412     -1.5122449e-13 -1.0767079e-13  346.56656     -5.1779055e-13
    486750   5353.2302      424.11971      4929.1105      312.71071      3451.1311      0.40101743     18421.214      356.64763     -4.3577412     -1.4974533e-13 -1.0757912e-13  356.64763     -5.1464889e-13
    487000   5372.8907      427.95495      4944.9357      315.5385       4067.7937      0.40101743     18421.214      365.29894     -4.3577412     -1.4908307e-13 -1.0740006e-13  365.29894     -5.1296624e-13
    487250   5353.4438      405.15511      4948.2887      298.72779      3954.6003      0.40101743     18421.214      348.98437     -4.3577412     -1.4957445e-13 -1.0731373e-13  348.98437     -5.1377636e-13
    487500   5343.7945      415.82687      4927.9676      306.59626      2674.2252      0.40101743     18421.214      342.53472     -4.3577412     -1.49195e-13   -1.0718139e-13  342.53472     -5.1275277e-13
    487750   5345.0552      401.20124      4943.8539      295.81253      3667.2987      0.40101743     18421.214      359.59782     -4.3577412     -1.492996e-13  -1.0734668e-13  359.59782     -5.1329256e-13
    488000   5302.4658      409.15894      4893.3068      301.67988      3489.886       0.40101743     18421.214      332.61843     -4.3577412     -1.4976153e-13 -1.0728212e-13  332.61843     -5.140873e-13 
    488250   5341.5247      406.40533      4935.1193      299.6496       3839.7797      0.40101743     18421.214      354.70529     -4.3577412     -1.4847935e-13 -1.0754731e-13  354.70529     -5.1205332e-13
    488500   5310.1184      376.27104      4933.8474      277.43107      2866.798       0.40101743     18421.214      346.26901     -4.3577412     -1.5066615e-13 -1.0762615e-13  346.26901     -5.165846e-13 
    488750   5335.9495      411.01847      4924.931       303.05094      4072.9982      0.40101743     18421.214      349.99525     -4.3577412     -1.4874982e-13 -1.0736221e-13  349.99525     -5.1222406e-13
    489000   5330.1288      404.27022      4925.8586      298.07534      3678.8741      0.40101743     18421.214      345.3439      -4.3577412     -1.4966781e-13 -1.0741661e-13  345.3439      -5.1416886e-13
    489250   5327.4444      385.94359      4941.5008      284.5628       2667.983       0.40101743     18421.214      353.88662     -4.3577412     -1.4939307e-13 -1.0742552e-13  353.88662     -5.1363719e-13
    489500   5366.3583      416.18315      4950.1751      306.85895      2656.9138      0.40101743     18421.214      346.98015     -4.3577412     -1.4929823e-13 -1.0752407e-13  346.98015     -5.136446e-13 
    489750   5352.2444      401.59586      4950.6486      296.10349      3376.7398      0.40101743     18421.214      350.11557     -4.3577412     -1.4950492e-13 -1.0765006e-13  350.11557     -5.1430994e-13
    490000   5357.0207      432.18301      4924.8377      318.65592      2323.8944      0.40101743     18421.214      329.14538     -4.3577412     -1.5037478e-13 -1.0765841e-13  329.14538     -5.1606638e-13
    490250   5339.0293      400.58874      4938.4406      295.36093      1819.3905      0.40101743     18421.214      345.16011     -4.3577412     -1.487976e-13  -1.0752198e-13  345.16011     -5.1263916e-13
    490500   5355.9278      433.31633      4922.6115      319.49154      2650.5352      0.40101743     18421.214      337.38116     -4.3577412     -1.4942547e-13 -1.0747919e-13  337.38116     -5.1380933e-13
    490750   5371.2564      421.04345      4950.2129      310.44253      3319.0165      0.40101743     18421.214      357.9949      -4.3577412     -1.4803394e-13 -1.0750892e-13  357.9949      -5.1108572e-13
    491000   5344.1491      423.64931      4920.4997      312.36388      3414.8574      0.40101743     18421.214      345.48538     -4.3577412     -1.4992802e-13 -1.0756732e-13  345.48538     -5.1499068e-13
    491250   5323.7342      410.35911      4913.3751      302.56479      5185.9291      0.40101743     18421.214      362.82991     -4.3577412     -1.4832014e-13 -1.0746813e-13  362.82991     -5.1157655e-13
    491500   5343.7148      386.80713      4956.9077      285.19951      3080.3202      0.40101743     18421.214      341.07739     -4.3577412     -1.4948637e-13 -1.0734431e-13  341.07739     -5.1366137e-13
    491750   5373.5927      425.33727      4948.2554      313.60844      2685.0953      0.40101743     18421.214      350.61365     -4.3577412     -1.4888733e-13 -1.0723866e-13  350.61365     -5.1225198e-13
    492000   5357.4276      420.32648      4937.1011      309.9139       3810.9776      0.40101743     18421.214      350.73491     -4.3577412     -1.4981213e-13 -1.0700821e-13  350.73491     -5.1364068e-13
    492250   5350.6161      416.66613      4933.9499      307.21506      3197.0978      0.40101743     18421.214      337.67223     -4.3577412     -1.4976519e-13 -1.0727113e-13  337.67223     -5.1407263e-13
    492500   5352.7576      416.83034      4935.9272      307.33613      4411.8967      0.40101743     18421.214      345.32815     -4.3577412     -1.497753e-13  -1.0733537e-13  345.32815     -5.1422135e-13
    492750   5345.3066      401.86268      4943.4439      296.30022      3103.2655      0.40101743     18421.214      347.87642     -4.3577412     -1.4823885e-13 -1.0738082e-13  347.87642     -5.1123933e-13
    493000   5379.7626      414.47291      4965.2897      305.59796      3234.6562      0.40101743     18421.214      363.31499     -4.3577412     -1.4979442e-13 -1.0759589e-13  363.31499     -5.1478061e-13
    493250   5321.1564      418.24475      4902.9116      308.379        4053.8448      0.40101743     18421.214      362.06768     -4.3577412     -1.4948966e-13 -1.0758949e-13  362.06768     -5.1415828e-13
    493500   5317.1201      377.76936      4939.3508      278.53581      2985.2943      0.40101743     18421.214      355.51318     -4.3577412     -1.4918383e-13 -1.0769319e-13  355.51318     -5.1375404e-13
    493750   5319.1225      400.90923      4918.2132      295.59722      3543.9155      0.40101743     18421.214      348.50985     -4.3577412     -1.4969231e-13 -1.0763594e-13  348.50985     -5.146565e-13 
    494000   5309.2824      397.51106      4911.7713      293.0917       2731.1512      0.40101743     18421.214      346.97375     -4.3577412     -1.4862423e-13 -1.0756806e-13  346.97375     -5.123846e-13 
    494250   5359.7407      430.03659      4929.7041      317.07333      3843.7088      0.40101743     18421.214      345.53606     -4.3577412     -1.4904829e-13 -1.0752837e-13  345.53606     -5.1315331e-13
    494500   5324.69        374.61907      4950.071       276.21304      3017.0924      0.40101743     18421.214      357.7969      -4.3577412     -1.4923463e-13 -1.0731219e-13  357.7969      -5.1309366e-13
    494750   5339.0194      421.22651      4917.7928      310.57751      3478.7212      0.40101743     18421.214      362.34131     -4.3577412     -1.4747016e-13 -1.0723781e-13  362.34131     -5.0941594e-13
    495000   5317.7496      406.26971      4911.4799      299.5496       3793.7108      0.40101743     18421.214      353.24393     -4.3577412     -1.4897732e-13 -1.0731417e-13  353.24393     -5.1258297e-13
    495250   5363.9758      435.07209      4928.9037      320.78609      3981.2181      0.40101743     18421.214      353.54551     -4.3577412     -1.4828525e-13 -1.0756406e-13  353.54551     -5.1169862e-13
    495500   5315.4732      386.2515       4929.2217      284.78983      3397.858       0.40101743     18421.214      349.88708     -4.3577412     -1.4771683e-13 -1.0770277e-13  349.88708     -5.108392e-13 
    495750   5349.2659      428.66359      4920.6024      316.06099      3429.5974      0.40101743     18421.214      343.22823     -4.3577412     -1.478076e-13  -1.0764474e-13  343.22823     -5.1090469e-13
    496000   5317.0309      385.93779      4931.0931      284.55853      3555.8759      0.40101743     18421.214      355.50453     -4.3577412     -1.4880129e-13 -1.0761111e-13  355.50453     -5.128248e-13 
    496250   5360.9451      407.10706      4953.838       300.167        1921.0673      0.40101743     18421.214      337.46812     -4.3577412     -1.4879721e-13 -1.0772566e-13  337.46812     -5.1304575e-13
    496500   5325.7865      412.92259      4912.8639      304.45488      4114.1429      0.40101743     18421.214      364.25342     -4.3577412     -1.4793062e-13 -1.0767651e-13  364.25342     -5.1121428e-13
    496750   5342.8865      428.46734      4914.4191      315.91629      4785.4037      0.40101743     18421.214      356.42915     -4.3577412     -1.4899154e-13 -1.0756919e-13  356.42915     -5.1312147e-13
    497000   5355.4283      415.4753       4939.953       306.33704      3136.8617      0.40101743     18421.214      347.61259     -4.3577412     -1.4982454e-13 -1.075517e-13   347.61259     -5.1475249e-13
    497250   5347.6046      395.89462      4951.71        291.89987      3605.3194      0.40101743     18421.214      353.91621     -4.3577412     -1.4882079e-13 -1.0746457e-13  353.91621     -5.125707e-13 
    497500   5360.2141      420.97051      4939.2436      310.38875      2173.6467      0.40101743     18421.214      337.80217     -4.3577412     -1.5122062e-13 -1.0748988e-13  337.80217     -5.1742099e-13
    497750   5346.6579      396.41922      4950.2387      292.28666      3443.0869      0.40101743     18421.214      344.53461     -4.3577412     -1.492292e-13  -1.0726586e-13  344.53461     -5.129901e-13 
    498000   5323.8109      393.31542      4930.4955      289.99818      3752.2148      0.40101743     18421.214      356.00887     -4.3577412     -1.5021792e-13 -1.0724394e-13  356.00887     -5.1492372e-13
    498250   5374.5937      419.28213      4955.3116      309.14388      3970.362       0.40101743     18421.214      360.54555     -4.3577412     -1.479462e-13  -1.0698352e-13  360.54555     -5.0985944e-13
    498500   5387.3806      428.27358      4959.107       315.77343      4334.4047      0.40101743     18421.214      350.49086     -4.3577412     -1.4742671e-13 -1.068211e-13   350.49086     -5.0849561e-13
    498750   5349.698       388.58236      4961.1157      286.50842      2884.2848      0.40101743     18421.214      345.90547     -4.3577412     -1.4776435e-13 -1.0671581e-13  345.90547     -5.0896031e-13
    499000   5361.8829      414.77692      4947.106       305.82212      2536.7213      0.40101743     18421.214      343.9023      -4.3577412     -1.4742093e-13 -1.0687294e-13  343.9023      -5.0858774e-13
    499250   5373.9305      416.23487      4957.6956      306.89708      3000.9454      0.40101743     18421.214      346.3121      -4.3577412     -1.4903571e-13 -1.0726363e-13  346.3121      -5.1259868e-13
    499500   5326.5585      403.80027      4922.7582      297.72884      4407.4521      0.40101743     18421.214      342.45174     -4.3577412     -1.4895841e-13 -1.0717736e-13  342.45174     -5.1227153e-13
    499750   5355.2551      412.24016      4943.0149      303.95171      3809.0108      0.40101743     18421.214      358.98916     -4.3577412     -1.477721e-13  -1.0731522e-13  358.98916     -5.1017463e-13
    500000   5351.0821      413.82126      4937.2609      305.11749      2874.4785      0.40101743     18421.214      334.99882     -4.3577412     -1.4893552e-13 -1.0738774e-13  334.99882     -5.1264653e-13
Loop time of 62.4152 on 4 procs for 500000 steps with 456 atoms

Performance: 692.139 ns/day, 0.035 hours/ns, 8010.864 timesteps/s
99.7% CPU use with 4 MPI tasks x no OpenMP threads

MPI task timing breakdown:
Section |  min time  |  avg time  |  max time  |%varavg| %total
---------------------------------------------------------------
Pair    | 33.088     | 37.063     | 41.048     |  59.6 | 59.38
Bond    | 4.6362     | 4.6987     | 4.7946     |   3.0 |  7.53
Kspace  | 2.8783     | 6.7789     | 10.785     | 139.0 | 10.86
Neigh   | 3.1318     | 3.1348     | 3.1378     |   0.2 |  5.02
Comm    | 7.8321     | 7.8815     | 7.9349     |   1.6 | 12.63
Output  | 0.014994   | 0.024859   | 0.0282     |   3.6 |  0.04
Modify  | 2.3507     | 2.3737     | 2.3974     |   1.3 |  3.80
Other   |            | 0.4603     |            |       |  0.74

Nlocal:            114 ave         119 max         108 min
Histogram: 1 1 0 0 0 0 0 0 0 2
Nghost:        2271.75 ave        2340 max        2202 min
Histogram: 1 0 1 0 0 0 0 1 0 1
Neighs:        18154.2 ave       21201 max       15367 min
Histogram: 1 0 0 1 0 1 0 0 0 1

Total # of neighbors = 72617
Ave neighs/atom = 159.24781
Ave special neighs/atom = 6.3157895
Neighbor list builds = 8960
Dangerous builds = 0

unfix			f1
unfix			f2

Total wall time: 0:01:27
